/*--------------------------------*- C++ -*----------------------------------*\
  =========                 |
  \\      /  F ield         | OpenFOAM: The Open Source CFD Toolbox
   \\    /   O peration     | Website:  https://openfoam.org
    \\  /    A nd           | Version:  7
     \\/     M anipulation  |
\*---------------------------------------------------------------------------*/
FoamFile
{
    version     2.0;
    format      ascii;
    class       volScalarField;
    location    "550";
    object      p;
}
// * * * * * * * * * * * * * * * * * * * * * * * * * * * * * * * * * * * * * //

dimensions      [0 2 -2 0 0 0 0];

internalField   nonuniform List<scalar> 
2500
(
1.35575e-06
-8.39902e-05
-0.000400823
-0.000946153
-0.00165617
-0.00248262
-0.00339401
-0.00436981
-0.00539587
-0.00646032
-0.00755029
-0.00864957
-0.00973729
-0.0107875
-0.0117695
-0.0126483
-0.0133864
-0.0139457
-0.01429
-0.0143876
-0.0142154
-0.0137619
-0.0130303
-0.0120416
-0.010836
-0.00947311
-0.00803019
-0.00659915
-0.00528115
-0.00417954
-0.00339171
-0.0030007
-0.00306734
-0.00362404
-0.00467102
-0.0061757
-0.00807509
-0.0102816
-0.012691
-0.0151912
-0.0176705
-0.0200256
-0.0221669
-0.0240215
-0.0255331
-0.0266621
-0.0273854
-0.0276991
-0.0276387
-0.0273934
8.73528e-05
-5.01438e-06
-0.00029473
-0.000782642
-0.0014168
-0.00215856
-0.00298279
-0.00387254
-0.00481551
-0.00580106
-0.00681751
-0.00785031
-0.00888088
-0.00988612
-0.0108385
-0.0117065
-0.012456
-0.0130516
-0.013459
-0.0136477
-0.0135942
-0.0132852
-0.0127206
-0.0119167
-0.0109081
-0.00974751
-0.00850484
-0.00726472
-0.00612123
-0.00517123
-0.00450657
-0.00420585
-0.00432672
-0.00489974
-0.00592469
-0.00736998
-0.00917528
-0.0112569
-0.0135159
-0.015847
-0.0181468
-0.0203213
-0.0222906
-0.0239922
-0.0253801
-0.0264244
-0.0271097
-0.0274302
-0.0273929
-0.0271468
0.000415968
0.000273974
-2.96815e-05
-0.000489171
-0.00106729
-0.00173745
-0.00248283
-0.00329231
-0.00415773
-0.00507149
-0.00602463
-0.00700533
-0.00799794
-0.00898244
-0.00993429
-0.0108248
-0.0116218
-0.0122912
-0.0127985
-0.0131119
-0.013205
-0.0130602
-0.0126723
-0.0120515
-0.011226
-0.0102425
-0.00916527
-0.00807416
-0.00705947
-0.0062154
-0.00563222
-0.00538782
-0.0055398
-0.00611903
-0.00712574
-0.00852887
-0.0102687
-0.0122629
-0.0144143
-0.0166204
-0.0187828
-0.0208135
-0.0226405
-0.0242106
-0.025488
-0.0264526
-0.0270957
-0.0274074
-0.0273641
-0.0270896
0.000997648
0.000761934
0.000397988
-7.19074e-05
-0.000628332
-0.00125761
-0.00195213
-0.00270825
-0.00352381
-0.00439612
-0.00532034
-0.00628831
-0.0072876
-0.00830091
-0.00930571
-0.0102743
-0.0111742
-0.0119696
-0.0126228
-0.0130971
-0.0133601
-0.0133877
-0.0131677
-0.0127034
-0.0120171
-0.0111515
-0.0101679
-0.00914512
-0.00817428
-0.00735192
-0.00677191
-0.00651644
-0.00664746
-0.00719955
-0.00817553
-0.00954536
-0.0112489
-0.0132019
-0.0153051
-0.0174542
-0.0195496
-0.0215052
-0.0232524
-0.0247435
-0.0259502
-0.0268599
-0.0274691
-0.0277656
-0.0277097
-0.0274164
0.00176328
0.00139881
0.000940377
0.000433529
-0.000125066
-0.000737033
-0.00140529
-0.00213497
-0.00293121
-0.00379736
-0.00473365
-0.00573612
-0.00679571
-0.0078974
-0.00901957
-0.0101338
-0.011205
-0.0121928
-0.0130533
-0.0137421
-0.0142184
-0.0144488
-0.0144127
-0.0141057
-0.0135436
-0.0127659
-0.0118322
-0.0108218
-0.00982894
-0.00895538
-0.00830207
-0.00795942
-0.0079978
-0.0084596
-0.00935378
-0.0106541
-0.0123015
-0.0142104
-0.0162778
-0.0183948
-0.0204578
-0.0223776
-0.0240858
-0.0255366
-0.0267061
-0.0275872
-0.0281814
-0.0284784
-0.0284355
-0.0281602
0.00263525
0.00211684
0.00154072
0.00097889
0.000399927
-0.000215977
-0.000883765
-0.00161839
-0.00243315
-0.00333814
-0.00433916
-0.00543675
-0.00662501
-0.00789046
-0.00921106
-0.0105557
-0.0118842
-0.0131491
-0.0142973
-0.015274
-0.0160271
-0.0165123
-0.0166983
-0.0165714
-0.0161399
-0.0154394
-0.0145274
-0.013484
-0.012407
-0.0114054
-0.0105898
-0.0100624
-0.00990671
-0.0101779
-0.0108966
-0.0120452
-0.0135698
-0.015386
-0.0173883
-0.0194626
-0.0214987
-0.0234012
-0.0250971
-0.0265391
-0.0277041
-0.0285876
-0.0291948
-0.0295198
-0.0295251
-0.0293071
0.00352863
0.00283984
0.00213145
0.0015022
0.000887096
0.000245229
-0.000451838
-0.00122977
-0.0021106
-0.00311158
-0.00424435
-0.00551385
-0.00691686
-0.00844036
-0.0100603
-0.0117406
-0.0134337
-0.015082
-0.0166206
-0.0179816
-0.0190991
-0.0199152
-0.0203858
-0.0204856
-0.0202129
-0.0195968
-0.0186911
-0.0175754
-0.0163508
-0.0151339
-0.0140471
-0.0132085
-0.0127196
-0.0126556
-0.0130556
-0.0139186
-0.0152025
-0.0168292
-0.0186941
-0.0206789
-0.0226654
-0.0245489
-0.0262476
-0.0277071
-0.0289002
-0.0298214
-0.0304764
-0.030863
-0.0309522
-0.0308254
0.00434784
0.00347979
0.00263138
0.00192605
0.00125985
0.000567928
-0.000193029
-0.00106015
-0.00206466
-0.00323121
-0.00457729
-0.00611195
-0.00783385
-0.00972917
-0.0117699
-0.0139131
-0.016101
-0.0182636
-0.0203213
-0.0221903
-0.0237882
-0.0250409
-0.0258883
-0.02629
-0.0262307
-0.0257289
-0.0248314
-0.0236143
-0.0221802
-0.0206526
-0.0191674
-0.0178617
-0.0168614
-0.0162691
-0.0161524
-0.0165369
-0.0174024
-0.0186857
-0.0202893
-0.0220937
-0.0239731
-0.0258107
-0.0275107
-0.0290057
-0.0302575
-0.0312534
-0.0319948
-0.0324799
-0.0326871
-0.0326791
0.00498684
0.0039372
0.00294623
0.00215824
0.00142526
0.000655998
-0.000208968
-0.00121891
-0.00241462
-0.00382832
-0.00548327
-0.00739216
-0.00955459
-0.0119545
-0.0145582
-0.0173135
-0.0201504
-0.0229837
-0.0257166
-0.0282468
-0.0304724
-0.0322992
-0.0336476
-0.034458
-0.0346967
-0.0343662
-0.0335015
-0.0321708
-0.0304747
-0.0285416
-0.0265207
-0.0245704
-0.0228464
-0.0214871
-0.0205999
-0.0202498
-0.0204521
-0.0211716
-0.0223276
-0.0238063
-0.0254765
-0.0272073
-0.0288838
-0.0304182
-0.0317529
-0.032859
-0.0337267
-0.0343484
-0.0347059
-0.0348395
0.00533088
0.00410311
0.00297089
0.00209418
0.00127667
0.00039872
-0.000616224
-0.00183019
-0.00329389
-0.0050473
-0.00711932
-0.00952572
-0.012266
-0.0153206
-0.0186481
-0.0221853
-0.0258474
-0.0295316
-0.0331217
-0.0364935
-0.0395222
-0.0420899
-0.044093
-0.0454486
-0.0460997
-0.0460265
-0.045247
-0.0438157
-0.041826
-0.0394073
-0.0367192
-0.0339418
-0.0312634
-0.0288656
-0.0269066
-0.0255058
-0.0247312
-0.0245927
-0.0250423
-0.0259832
-0.0272849
-0.028803
-0.0303987
-0.0319548
-0.0333842
-0.0346308
-0.0356628
-0.0364589
-0.0369977
-0.0372928
0.00525973
0.0038625
0.00259317
0.00162096
0.000698232
-0.000324171
-0.00154069
-0.00302662
-0.004843
-0.00703774
-0.00964522
-0.0126837
-0.0161517
-0.0200243
-0.0242511
-0.0287553
-0.0334355
-0.0381687
-0.0428158
-0.0472281
-0.0512543
-0.054749
-0.0575808
-0.0596395
-0.0608404
-0.0611368
-0.0605247
-0.0590377
-0.0567563
-0.0538045
-0.0503468
-0.0465807
-0.0427265
-0.0390119
-0.0356547
-0.0328432
-0.0307171
-0.0293534
-0.0287588
-0.028872
-0.0295756
-0.0307164
-0.0321292
-0.0336584
-0.0351747
-0.036581
-0.0378106
-0.0388171
-0.0395675
-0.0400434
0.00465247
0.00309914
0.00169885
0.000622923
-0.00042893
-0.0016357
-0.00311009
-0.00494114
-0.00720054
-0.00994432
-0.0132122
-0.0170242
-0.0213767
-0.0262381
-0.0315467
-0.0372103
-0.0431077
-0.0490931
-0.0550016
-0.0606563
-0.0658763
-0.0704859
-0.0743231
-0.0772477
-0.0791459
-0.0799405
-0.0796027
-0.078139
-0.0756108
-0.0721288
-0.0678535
-0.0629911
-0.0577864
-0.0525102
-0.0474423
-0.0428497
-0.0389618
-0.0359473
-0.0338954
-0.0328077
-0.0326017
-0.033128
-0.0341968
-0.0356075
-0.0371744
-0.038743
-0.0401947
-0.0414441
-0.0424365
-0.0431144
0.00339346
0.00170162
0.000177998
-0.00101154
-0.00221935
-0.00365359
-0.00544528
-0.00769743
-0.0104927
-0.0138953
-0.01795
-0.0226778
-0.0280713
-0.0340907
-0.0406604
-0.0476698
-0.0549752
-0.0624042
-0.0697629
-0.0768431
-0.0834323
-0.0893226
-0.0943209
-0.0982573
-0.100989
-0.102411
-0.102466
-0.101132
-0.0984467
-0.0944986
-0.0894335
-0.0834527
-0.0768117
-0.0698118
-0.0627875
-0.0560852
-0.0500354
-0.0449207
-0.0409446
-0.038207
-0.0366936
-0.0362836
-0.0367745
-0.0379185
-0.0394605
-0.0411696
-0.042855
-0.0443748
-0.0456397
-0.0465441
0.00137907
-0.000429958
-0.00206806
-0.00338252
-0.00477512
-0.00648154
-0.00865075
-0.0113998
-0.0148224
-0.0189907
-0.0239539
-0.0297328
-0.0363146
-0.0436483
-0.0516417
-0.0601623
-0.0690396
-0.0780715
-0.0870311
-0.0956772
-0.103764
-0.111053
-0.117322
-0.122374
-0.126042
-0.128194
-0.128754
-0.127671
-0.124953
-0.120663
-0.11492
-0.107904
-0.0998636
-0.0911078
-0.0820066
-0.0729726
-0.0644356
-0.0568056
-0.0504285
-0.0455431
-0.0422485
-0.0404928
-0.0400873
-0.0407458
-0.0421361
-0.043931
-0.0458439
-0.0476545
-0.049223
-0.0503826
-0.00147541
-0.00337702
-0.00511956
-0.00657095
-0.00817773
-0.0102005
-0.0128055
-0.0161233
-0.0202584
-0.0252907
-0.0312723
-0.0382222
-0.0461197
-0.0548991
-0.0644478
-0.0746071
-0.0851755
-0.0959167
-0.106569
-0.116857
-0.126502
-0.135237
-0.142817
-0.149025
-0.153677
-0.156621
-0.157767
-0.157046
-0.154436
-0.149971
-0.143735
-0.135875
-0.126607
-0.116222
-0.105095
-0.0936757
-0.082474
-0.0720222
-0.062825
-0.0552972
-0.0497036
-0.0461167
-0.0444088
-0.0442818
-0.0453299
-0.0471134
-0.0492234
-0.0513348
-0.0532377
-0.0546849
-0.00522929
-0.00719606
-0.0090316
-0.0106316
-0.0124806
-0.014861
-0.0179546
-0.0219051
-0.0268269
-0.0328064
-0.0398971
-0.0481137
-0.0574238
-0.0677435
-0.078935
-0.0908081
-0.103126
-0.115616
-0.127979
-0.139904
-0.151087
-0.161235
-0.170088
-0.177418
-0.183031
-0.186772
-0.18854
-0.188261
-0.185889
-0.18143
-0.174932
-0.166497
-0.156291
-0.144561
-0.131648
-0.117999
-0.104164
-0.0907697
-0.0784726
-0.0678853
-0.0594868
-0.0535415
-0.0500497
-0.048753
-0.0491946
-0.0508164
-0.0530618
-0.0554699
-0.0577358
-0.0595064
-0.00991114
-0.0119133
-0.0138287
-0.0155871
-0.0177032
-0.0204766
-0.0241032
-0.0287382
-0.0345048
-0.0414939
-0.0497583
-0.0593047
-0.0700856
-0.0819937
-0.094861
-0.108461
-0.12252
-0.136722
-0.150733
-0.164212
-0.176828
-0.188277
-0.198287
-0.20663
-0.213119
-0.217599
-0.219971
-0.220169
-0.21813
-0.213841
-0.207317
-0.198612
-0.187833
-0.175159
-0.160866
-0.145351
-0.129149
-0.112931
-0.0974702
-0.0835684
-0.0719495
-0.0631341
-0.0573346
-0.05441
-0.0539033
-0.0551514
-0.0574312
-0.0601126
-0.0627657
-0.064897
-0.015515
-0.0175209
-0.0195007
-0.0214244
-0.0238268
-0.0270203
-0.0312124
-0.0365679
-0.0432169
-0.0512523
-0.0607231
-0.0716245
-0.083889
-0.0973814
-0.111899
-0.127175
-0.142894
-0.158701
-0.174226
-0.189101
-0.20298
-0.215549
-0.22654
-0.235734
-0.242957
-0.248069
-0.250976
-0.251634
-0.249976
-0.245978
-0.23963
-0.230945
-0.219969
-0.206806
-0.191641
-0.174783
-0.156696
-0.138028
-0.119602
-0.102367
-0.0872866
-0.0751827
-0.0665643
-0.0615086
-0.0596418
-0.0602381
-0.0624045
-0.0653109
-0.0683662
-0.0708955
-0.0219986
-0.0239752
-0.0260016
-0.0280926
-0.030793
-0.0344231
-0.0391987
-0.0452919
-0.0528369
-0.061926
-0.0726008
-0.0848408
-0.0985545
-0.113574
-0.129659
-0.1465
-0.163738
-0.180981
-0.197829
-0.213892
-0.228815
-0.242285
-0.254046
-0.263894
-0.271677
-0.27728
-0.280619
-0.281681
-0.280403
-0.276759
-0.270729
-0.262293
-0.25145
-0.23823
-0.222723
-0.205124
-0.18578
-0.165246
-0.144315
-0.124002
-0.105465
-0.0898294
-0.0779666
-0.0702802
-0.0665938
-0.0661974
-0.0680515
-0.0711037
-0.0745634
-0.0775246
-0.029284
-0.0311975
-0.0332496
-0.0355042
-0.0385052
-0.0425756
-0.0479364
-0.0547636
-0.0631926
-0.0733119
-0.085152
-0.0986733
-0.113756
-0.130198
-0.147717
-0.165961
-0.184531
-0.203001
-0.220945
-0.23796
-0.253688
-0.267827
-0.280136
-0.290437
-0.298603
-0.304545
-0.3082
-0.309579
-0.308638
-0.305358
-0.299715
-0.291678
-0.28121
-0.268284
-0.252905
-0.235148
-0.215222
-0.193534
-0.170762
-0.147892
-0.126181
-0.107012
-0.0916413
-0.0808929
-0.0749184
-0.0731406
-0.0744321
-0.0775159
-0.0813654
-0.0847856
-0.0372601
-0.0390767
-0.0411307
-0.0435381
-0.0468321
-0.0513328
-0.0572627
-0.0647986
-0.0740736
-0.085169
-0.0981014
-0.112809
-0.129141
-0.14686
-0.16564
-0.185092
-0.204779
-0.224244
-0.243045
-0.260773
-0.277075
-0.291662
-0.304317
-0.314885
-0.323271
-0.32941
-0.333267
-0.334868
-0.334197
-0.331246
-0.326
-0.318425
-0.308471
-0.296074
-0.281175
-0.263748
-0.243861
-0.221748
-0.197909
-0.173199
-0.148859
-0.126429
-0.107514
-0.0934091
-0.0847216
-0.0811526
-0.0815876
-0.0845517
-0.0887557
-0.092653
-0.045788
-0.0474745
-0.0495035
-0.0520458
-0.055614
-0.0605207
-0.0669861
-0.075184
-0.0852421
-0.0972317
-0.111153
-0.126919
-0.14435
-0.163169
-0.183016
-0.203462
-0.224038
-0.244268
-0.263697
-0.281917
-0.298584
-0.313429
-0.326259
-0.336944
-0.345415
-0.351636
-0.355593
-0.357328
-0.356852
-0.354169
-0.349281
-0.342163
-0.332766
-0.321013
-0.306808
-0.290054
-0.270698
-0.248806
-0.22467
-0.198935
-0.172704
-0.147544
-0.125306
-0.107748
-0.0960249
-0.090272
-0.0895287
-0.0921872
-0.0966878
-0.101068
-0.0547068
-0.056232
-0.0582066
-0.0608581
-0.0646707
-0.0699449
-0.076895
-0.0856885
-0.0964446
-0.109222
-0.124003
-0.140677
-0.159033
-0.178761
-0.199465
-0.220687
-0.241933
-0.262712
-0.282564
-0.301085
-0.317948
-0.332902
-0.345777
-0.356468
-0.364928
-0.371144
-0.375123
-0.376919
-0.376565
-0.374081
-0.369486
-0.362771
-0.353903
-0.342808
-0.329381
-0.313486
-0.294987
-0.27381
-0.250042
-0.22408
-0.196794
-0.169629
-0.14454
-0.123664
-0.108738
-0.10047
-0.0982225
-0.100362
-0.105078
-0.109935
-0.0638423
-0.0651774
-0.0670664
-0.0697943
-0.0738107
-0.0794006
-0.0867691
-0.0960742
-0.107424
-0.120864
-0.136358
-0.153771
-0.172865
-0.193303
-0.214658
-0.236448
-0.258162
-0.2793
-0.299402
-0.318074
-0.335004
-0.34996
-0.362793
-0.373418
-0.381807
-0.387964
-0.391912
-0.393714
-0.393423
-0.39107
-0.386692
-0.380303
-0.371888
-0.361394
-0.348726
-0.33374
-0.316258
-0.296108
-0.273206
-0.247704
-0.22018
-0.191838
-0.164569
-0.140744
-0.122639
-0.111632
-0.107579
-0.108971
-0.1138
-0.119111
-0.0730147
-0.0741347
-0.0759059
-0.078671
-0.0828407
-0.0886822
-0.0963888
-0.106107
-0.117931
-0.131894
-0.147939
-0.165915
-0.185558
-0.206507
-0.228316
-0.250483
-0.272488
-0.293827
-0.314044
-0.332757
-0.349666
-0.364559
-0.3773
-0.387823
-0.396112
-0.402183
-0.406071
-0.407843
-0.407568
-0.405288
-0.401056
-0.394906
-0.386847
-0.376855
-0.364859
-0.350731
-0.334286
-0.315302
-0.293575
-0.269044
-0.241992
-0.213297
-0.184635
-0.158427
-0.137373
-0.123542
-0.117439
-0.117854
-0.122678
-0.12841
-0.0820475
-0.0829321
-0.0845537
-0.0873111
-0.0915748
-0.097593
-0.105546
-0.115565
-0.127734
-0.142068
-0.1585
-0.176857
-0.196862
-0.218135
-0.240215
-0.262591
-0.284737
-0.306151
-0.326384
-0.345062
-0.3619
-0.376696
-0.38933
-0.399742
-0.407926
-0.413907
-0.417725
-0.419449
-0.41916
-0.416906
-0.412756
-0.406762
-0.398959
-0.389352
-0.377903
-0.364519
-0.349033
-0.331213
-0.31079
-0.287547
-0.261504
-0.233189
-0.203942
-0.176051
-0.152463
-0.135883
-0.12757
-0.126798
-0.131487
-0.137593
-0.090775
-0.0914095
-0.0928511
-0.0955522
-0.0998433
-0.105954
-0.11405
-0.124251
-0.136624
-0.151175
-0.167822
-0.186383
-0.206569
-0.22799
-0.250178
-0.272618
-0.294784
-0.316178
-0.336358
-0.354958
-0.371701
-0.386397
-0.398928
-0.409243
-0.417338
-0.423239
-0.426992
-0.428662
-0.428341
-0.42608
-0.421959
-0.416049
-0.408406
-0.399068
-0.388032
-0.375245
-0.360579
-0.343823
-0.324688
-0.302868
-0.278175
-0.250812
-0.221722
-0.192901
-0.167336
-0.148239
-0.137659
-0.135524
-0.139947
-0.146374
-0.0990498
-0.0994258
-0.100659
-0.103253
-0.107499
-0.11361
-0.121739
-0.131992
-0.144425
-0.159033
-0.175727
-0.194319
-0.214515
-0.235922
-0.258074
-0.280455
-0.302545
-0.323849
-0.343931
-0.362434
-0.379083
-0.393692
-0.406146
-0.416391
-0.424423
-0.430268
-0.433971
-0.435592
-0.435231
-0.43294
-0.428808
-0.42292
-0.415355
-0.406178
-0.395422
-0.383078
-0.369065
-0.353213
-0.335252
-0.314837
-0.291651
-0.265621
-0.237295
-0.208266
-0.181363
-0.160114
-0.14732
-0.143696
-0.147729
-0.154417
-0.106748
-0.106865
-0.107866
-0.110299
-0.114424
-0.120436
-0.12848
-0.13865
-0.150993
-0.165497
-0.182072
-0.200527
-0.220573
-0.241821
-0.263808
-0.286027
-0.307963
-0.329129
-0.349091
-0.367494
-0.384066
-0.398615
-0.411026
-0.421239
-0.429245
-0.435064
-0.438739
-0.440323
-0.439924
-0.437588
-0.433415
-0.427501
-0.419944
-0.410833
-0.400236
-0.388187
-0.374653
-0.359518
-0.342552
-0.32342
-0.301736
-0.277231
-0.2501
-0.221487
-0.193894
-0.170953
-0.156103
-0.150921
-0.154452
-0.161344
-0.113773
-0.113637
-0.114387
-0.116609
-0.120531
-0.12634
-0.134174
-0.144119
-0.156219
-0.170459
-0.18675
-0.204909
-0.224654
-0.245607
-0.267317
-0.289287
-0.31101
-0.332002
-0.351833
-0.370147
-0.386667
-0.401194
-0.413603
-0.423828
-0.431848
-0.437677
-0.441352
-0.442921
-0.442486
-0.440102
-0.435868
-0.429891
-0.422285
-0.41316
-0.402617
-0.390726
-0.377505
-0.362892
-0.346713
-0.328671
-0.308364
-0.285408
-0.259715
-0.231991
-0.204302
-0.180172
-0.163506
-0.156754
-0.159691
-0.166732
-0.120056
-0.119682
-0.120171
-0.122131
-0.125768
-0.131264
-0.138758
-0.148334
-0.160035
-0.173849
-0.189697
-0.207407
-0.226712
-0.24725
-0.268585
-0.290232
-0.311694
-0.33249
-0.352192
-0.370435
-0.386934
-0.40148
-0.413933
-0.424214
-0.43229
-0.438165
-0.441866
-0.443437
-0.442973
-0.44054
-0.436233
-0.430167
-0.422468
-0.413265
-0.402685
-0.390833
-0.377773
-0.363494
-0.347883
-0.330698
-0.311562
-0.29004
-0.265848
-0.23931
-0.212006
-0.187176
-0.168987
-0.160705
-0.162975
-0.170122
-0.12556
-0.124969
-0.125193
-0.126848
-0.130116
-0.135185
-0.142199
-0.151251
-0.162391
-0.175619
-0.190867
-0.207981
-0.226713
-0.246724
-0.267593
-0.288852
-0.310012
-0.330597
-0.350172
-0.368367
-0.384882
-0.399491
-0.412039
-0.422428
-0.430611
-0.436578
-0.440345
-0.441952
-0.441478
-0.438998
-0.434604
-0.42842
-0.420584
-0.411244
-0.40055
-0.388634
-0.375597
-0.361477
-0.346219
-0.329641
-0.311417
-0.29111
-0.268325
-0.243085
-0.216497
-0.191388
-0.171981
-0.162245
-0.163792
-0.171012
-0.130275
-0.129498
-0.129461
-0.130769
-0.133588
-0.138111
-0.1445
-0.152868
-0.163281
-0.175757
-0.190248
-0.206624
-0.22466
-0.244039
-0.264362
-0.285176
-0.306001
-0.326362
-0.345819
-0.363989
-0.380556
-0.395273
-0.407964
-0.418512
-0.42685
-0.432952
-0.436824
-0.438497
-0.438036
-0.435527
-0.431054
-0.424748
-0.416755
-0.407233
-0.39635
-0.384266
-0.371121
-0.356995
-0.341882
-0.325657
-0.308053
-0.288671
-0.267068
-0.243061
-0.217339
-0.192257
-0.171907
-0.160802
-0.161582
-0.168856
-0.13422
-0.133294
-0.133007
-0.133935
-0.136224
-0.140079
-0.145693
-0.153207
-0.162721
-0.17428
-0.187862
-0.203363
-0.220587
-0.23924
-0.258946
-0.279267
-0.299729
-0.31986
-0.33921
-0.35738
-0.374034
-0.388904
-0.401787
-0.412545
-0.421087
-0.427372
-0.431391
-0.433165
-0.432745
-0.430225
-0.42568
-0.419247
-0.411078
-0.401342
-0.390221
-0.377896
-0.364525
-0.350226
-0.335044
-0.318914
-0.301622
-0.282818
-0.262067
-0.239065
-0.214173
-0.189268
-0.16817
-0.155765
-0.155732
-0.163053
-0.137438
-0.136405
-0.135889
-0.136406
-0.138084
-0.141147
-0.145826
-0.152313
-0.160751
-0.171224
-0.183745
-0.198243
-0.214548
-0.232393
-0.251422
-0.271209
-0.29129
-0.311187
-0.330442
-0.348638
-0.365416
-0.380482
-0.393607
-0.404625
-0.413425
-0.419944
-0.424156
-0.426071
-0.425728
-0.423222
-0.418623
-0.412067
-0.403711
-0.393733
-0.382325
-0.369682
-0.355984
-0.341371
-0.325916
-0.309603
-0.29229
-0.273679
-0.253363
-0.230992
-0.2067
-0.181932
-0.160155
-0.146463
-0.145551
-0.152921
-0.139993
-0.138905
-0.138184
-0.138263
-0.139248
-0.141387
-0.144965
-0.150241
-0.157421
-0.16664
-0.177956
-0.19133
-0.206622
-0.223589
-0.241892
-0.261118
-0.280805
-0.300472
-0.319649
-0.337898
-0.354836
-0.370142
-0.383557
-0.394889
-0.404001
-0.410806
-0.415263
-0.417367
-0.417146
-0.414684
-0.410058
-0.403393
-0.394851
-0.384613
-0.372876
-0.359844
-0.345711
-0.330634
-0.314711
-0.29795
-0.280252
-0.261393
-0.241019
-0.218775
-0.19466
-0.169779
-0.147217
-0.13215
-0.130248
-0.137669
-0.141967
-0.140882
-0.139988
-0.1396
-0.139803
-0.140876
-0.143179
-0.147055
-0.152793
-0.160595
-0.170568
-0.182711
-0.196913
-0.212948
-0.230494
-0.249145
-0.268439
-0.287888
-0.307007
-0.325339
-0.342475
-0.358064
-0.371819
-0.383518
-0.392996
-0.400144
-0.404901
-0.407248
-0.4072
-0.404825
-0.400207
-0.393459
-0.38474
-0.374232
-0.362133
-0.348647
-0.333972
-0.318274
-0.301665
-0.284173
-0.26572
-0.246124
-0.225108
-0.202356
-0.177806
-0.152327
-0.128656
-0.111968
-0.108885
-0.116339
-0.143462
-0.142445
-0.141412
-0.140519
-0.139836
-0.13969
-0.140532
-0.142816
-0.146931
-0.15316
-0.161669
-0.172494
-0.185548
-0.200622
-0.217401
-0.235481
-0.254396
-0.273651
-0.292742
-0.311192
-0.328565
-0.344481
-0.358625
-0.370742
-0.380643
-0.388194
-0.393312
-0.39596
-0.396142
-0.393906
-0.389341
-0.382544
-0.373669
-0.362891
-0.350401
-0.336398
-0.321073
-0.304591
-0.287061
-0.268518
-0.248898
-0.228036
-0.205699
-0.181661
-0.155867
-0.129052
-0.103678
-0.0849012
-0.0803212
-0.0877278
-0.144598
-0.143726
-0.142581
-0.141126
-0.13943
-0.137891
-0.137077
-0.137575
-0.139896
-0.144416
-0.151362
-0.160809
-0.172687
-0.186797
-0.202824
-0.22036
-0.238931
-0.258027
-0.277129
-0.295737
-0.31339
-0.32968
-0.34426
-0.35685
-0.36723
-0.375243
-0.380783
-0.383796
-0.384271
-0.382237
-0.377776
-0.370975
-0.361971
-0.35093
-0.338027
-0.323445
-0.30736
-0.289915
-0.271206
-0.251256
-0.229995
-0.207264
-0.182841
-0.156569
-0.128502
-0.099333
-0.0713425
-0.0496988
-0.0431076
-0.0502668
-0.145526
-0.144883
-0.143641
-0.141531
-0.138656
-0.13552
-0.132842
-0.131369
-0.131745
-0.134449
-0.139769
-0.147813
-0.158524
-0.171701
-0.187021
-0.204065
-0.222345
-0.241336
-0.260499
-0.279313
-0.297292
-0.314001
-0.329066
-0.342179
-0.353094
-0.361627
-0.367654
-0.371098
-0.371931
-0.370167
-0.365866
-0.359111
-0.350014
-0.33872
-0.325384
-0.310161
-0.293194
-0.274594
-0.254423
-0.232666
-0.209226
-0.18392
-0.15653
-0.126908
-0.095266
-0.0624136
-0.0305108
-0.00479125
0.00465322
-0.00182283
-0.146454
-0.146127
-0.144769
-0.141846
-0.137563
-0.132592
-0.127835
-0.124219
-0.122534
-0.123357
-0.127036
-0.1337
-0.143296
-0.155609
-0.1703
-0.186931
-0.204997
-0.22395
-0.243236
-0.262309
-0.280663
-0.297837
-0.313434
-0.327117
-0.338617
-0.347727
-0.354299
-0.358237
-0.359494
-0.358065
-0.353985
-0.347326
-0.33817
-0.326636
-0.312845
-0.296912
-0.278934
-0.25897
-0.237022
-0.213014
-0.186784
-0.158097
-0.126696
-0.0924452
-0.0556269
-0.0173539
0.0201725
0.0517118
0.0653891
0.0604995
-0.1477
-0.147755
-0.146194
-0.142194
-0.136191
-0.129099
-0.122043
-0.116142
-0.112327
-0.111266
-0.113347
-0.118712
-0.127292
-0.138852
-0.153026
-0.16935
-0.187295
-0.206295
-0.225772
-0.245163
-0.263941
-0.281625
-0.297793
-0.312087
-0.324214
-0.333947
-0.341113
-0.345598
-0.347334
-0.346296
-0.342494
-0.335971
-0.326786
-0.315017
-0.300742
-0.284024
-0.264896
-0.243342
-0.219278
-0.192532
-0.162836
-0.129851
-0.0932366
-0.0528234
-0.00893811
0.0370189
0.0823649
0.121977
0.142002
0.140396
-0.149822
-0.150243
-0.148244
-0.142737
-0.13458
-0.125025
-0.115455
-0.10717
-0.101224
-0.0983466
-0.0989465
-0.103153
-0.110869
-0.121827
-0.135624
-0.151768
-0.169703
-0.188838
-0.20858
-0.228347
-0.247594
-0.265821
-0.28259
-0.297521
-0.310302
-0.320684
-0.328476
-0.333542
-0.335793
-0.33518
-0.331691
-0.325333
-0.316133
-0.30412
-0.289322
-0.271735
-0.251311
-0.227935
-0.201402
-0.171402
-0.137512
-0.0992232
-0.0560402
-0.00768436
0.0455249
0.102058
0.158271
0.20877
0.238292
0.24274
-0.153878
-0.154413
-0.151442
-0.143727
-0.13282
-0.120397
-0.108106
-0.0973986
-0.0893947
-0.08485
-0.0841568
-0.087406
-0.0944569
-0.104995
-0.118579
-0.134681
-0.152717
-0.172079
-0.192152
-0.212341
-0.232087
-0.250875
-0.268252
-0.283823
-0.297258
-0.308289
-0.316707
-0.322357
-0.325126
-0.324945
-0.32177
-0.315581
-0.306357
-0.294078
-0.278707
-0.260164
-0.238299
-0.212872
-0.183528
-0.149767
-0.110947
-0.0663133
-0.0151128
0.0431587
0.108316
0.178786
0.250367
0.316043
0.360523
0.375956
-0.161998
-0.16177
-0.156672
-0.145617
-0.131143
-0.11537
-0.100157
-0.0870452
-0.0771391
-0.0711461
-0.0694089
-0.0719482
-0.0785599
-0.088876
-0.102411
-0.118604
-0.136843
-0.156502
-0.176951
-0.197584
-0.217831
-0.237168
-0.255128
-0.271305
-0.285357
-0.296998
-0.306004
-0.3122
-0.315455
-0.315673
-0.312783
-0.30673
-0.297453
-0.284874
-0.268879
-0.249298
-0.225868
-0.198202
-0.165753
-0.127791
-0.0833819
-0.0314303
0.029201
0.0994062
0.179326
0.267565
0.359881
0.44793
0.516618
0.553461
-0.178436
-0.175117
-0.165486
-0.14925
-0.130078
-0.110359
-0.0920122
-0.0765428
-0.0649326
-0.0577536
-0.0552477
-0.0573334
-0.0637279
-0.0740033
-0.0876301
-0.104013
-0.122521
-0.142509
-0.163339
-0.184397
-0.205105
-0.224935
-0.243413
-0.260122
-0.27471
-0.286882
-0.296397
-0.303065
-0.306737
-0.307292
-0.304634
-0.298669
-0.289296
-0.276378
-0.259723
-0.239058
-0.213995
-0.183982
-0.14826
-0.105819
-0.0553748
0.00461582
0.0758386
0.159825
0.257366
0.367562
0.486398
0.606006
0.707813
0.779833
-0.211352
-0.199548
-0.180384
-0.155871
-0.130396
-0.105984
-0.0842537
-0.0664607
-0.0533432
-0.0452524
-0.0422391
-0.0440958
-0.0504514
-0.0608158
-0.0746176
-0.0912344
-0.110018
-0.130313
-0.151476
-0.172891
-0.193977
-0.214204
-0.233094
-0.250228
-0.265244
-0.27784
-0.287765
-0.294814
-0.298821
-0.299646
-0.297164
-0.291248
-0.281752
-0.268485
-0.251178
-0.229453
-0.202796
-0.170486
-0.131543
-0.0846628
-0.0281636
0.0400352
0.122358
0.221347
0.339105
0.47621
0.629788
0.791375
0.930634
1.03508
-0.280274
-0.243431
-0.202849
-0.16485
-0.131108
-0.101384
-0.0763094
-0.056541
-0.0423487
-0.0337303
-0.0305157
-0.0323735
-0.0388472
-0.049394
-0.0634116
-0.080261
-0.0992854
-0.119828
-0.141246
-0.162925
-0.184288
-0.204806
-0.224001
-0.241453
-0.256798
-0.269725
-0.279977
-0.287336
-0.291623
-0.292679
-0.290354
-0.284491
-0.274903
-0.261347
-0.243487
-0.220858
-0.192833
-0.158543
-0.116808
-0.0660554
-0.00422854
0.0713063
0.163826
0.277248
0.41594
0.584135
0.784048
1.0099
1.21714
1.36926
-0.458012
-0.313121
-0.21855
-0.164616
-0.124206
-0.0903216
-0.0635295
-0.0434919
-0.0294965
-0.0212253
-0.0184397
-0.0207478
-0.0276451
-0.0385727
-0.0529306
-0.070087
-0.0893939
-0.110204
-0.131885
-0.153829
-0.175468
-0.196276
-0.215778
-0.233553
-0.249236
-0.262511
-0.273112
-0.280816
-0.285428
-0.286775
-0.28469
-0.278992
-0.26946
-0.255817
-0.237682
-0.214539
-0.185679
-0.150136
-0.106603
-0.0533294
0.0119992
0.092426
0.191938
0.315789
0.471007
0.667298
0.918081
1.23959
1.62917
2.07738
-0.913085
-0.400343
-0.194426
-0.145768
-0.108164
-0.0713183
-0.044546
-0.026366
-0.0140559
-0.00704003
-0.00527289
-0.00842527
-0.016005
-0.0274859
-0.0423075
-0.059869
-0.0795458
-0.100709
-0.122741
-0.145045
-0.167057
-0.188258
-0.208173
-0.22638
-0.24251
-0.256244
-0.267309
-0.275473
-0.280535
-0.282311
-0.280622
-0.275276
-0.266042
-0.252627
-0.234632
-0.211518
-0.182551
-0.146734
-0.102722
-0.0487127
0.0176916
0.0996859
0.201572
0.329311
0.491609
0.702389
0.986705
1.39868
2.06764
3.21982
)
;

boundaryField
{
    movingWall
    {
        type            zeroGradient;
    }
    fixedWalls
    {
        type            zeroGradient;
    }
    frontAndBack
    {
        type            empty;
    }
}


// ************************************************************************* //
