/*--------------------------------*- C++ -*----------------------------------*\
  =========                 |
  \\      /  F ield         | OpenFOAM: The Open Source CFD Toolbox
   \\    /   O peration     | Website:  https://openfoam.org
    \\  /    A nd           | Version:  7
     \\/     M anipulation  |
\*---------------------------------------------------------------------------*/
FoamFile
{
    version     2.0;
    format      ascii;
    class       surfaceScalarField;
    location    "550";
    object      phi;
}
// * * * * * * * * * * * * * * * * * * * * * * * * * * * * * * * * * * * * * //

dimensions      [0 3 -1 0 0 0 0];

internalField   nonuniform List<scalar> 
4900
(
5.40176e-07
-5.46752e-07
1.32276e-06
-7.82606e-07
1.85563e-06
-5.3288e-07
1.9255e-06
-6.9882e-08
1.47868e-06
4.46796e-07
5.30527e-07
9.48143e-07
-8.82142e-07
1.41265e-06
-2.72443e-06
1.84227e-06
-4.97186e-06
2.24742e-06
-7.61018e-06
2.63831e-06
-1.06308e-05
3.0206e-06
-1.40245e-05
3.39366e-06
-1.77751e-05
3.75058e-06
-2.18539e-05
4.07883e-06
-2.62153e-05
4.36138e-06
-3.07932e-05
4.57789e-06
-3.54992e-05
4.70603e-06
-4.02222e-05
4.72293e-06
-4.4829e-05
4.6068e-06
-4.91677e-05
4.33868e-06
-5.30721e-05
3.90443e-06
-5.63688e-05
3.29668e-06
-5.88855e-05
2.5167e-06
-6.04615e-05
1.576e-06
-6.0959e-05
4.97454e-07
-6.02746e-05
-6.8442e-07
-5.83497e-05
-1.9249e-06
-5.51799e-05
-3.16983e-06
-5.08211e-05
-4.35883e-06
-4.53919e-05
-5.42917e-06
-3.90718e-05
-6.32017e-06
-3.20935e-05
-6.97827e-06
-2.47316e-05
-7.36187e-06
-1.72861e-05
-7.44559e-06
-1.00629e-05
-7.22322e-06
-3.35396e-06
-6.7089e-06
2.58241e-06
-5.93639e-06
7.53864e-06
-4.95624e-06
1.13691e-05
-3.83046e-06
1.39959e-05
-2.6268e-06
1.54092e-05
-1.41337e-06
1.56625e-05
-2.53277e-07
1.48641e-05
7.98387e-07
1.31696e-05
1.69449e-06
1.07796e-05
2.39002e-06
7.94587e-06
2.83374e-06
4.98972e-06
2.95615e-06
2.33211e-06
2.65761e-06
5.14971e-07
1.81714e-06
5.1497e-07
7.89438e-07
-1.33621e-06
1.67147e-06
-1.66468e-06
1.78753e-06
-6.48985e-07
7.52894e-07
9.6472e-07
-1.56006e-06
2.75971e-06
-5.14754e-06
4.53558e-06
-9.95439e-06
6.21946e-06
-1.59176e-05
7.80543e-06
-2.29834e-05
9.31319e-06
-3.11076e-05
1.07624e-05
-4.02462e-05
1.21592e-05
-5.03432e-05
1.34906e-05
-6.13167e-05
1.47241e-05
-7.30479e-05
1.58099e-05
-8.53719e-05
1.66854e-05
-9.80729e-05
1.72789e-05
-0.000110882
1.75154e-05
-0.000123481
1.73219e-05
-0.000135508
1.66332e-05
-0.000146567
1.53979e-05
-0.000156247
1.35843e-05
-0.000164137
1.11862e-05
-0.000169847
8.22732e-06
-0.000173036
4.76437e-06
-0.000173427
8.88815e-07
-0.000170838
-3.2738e-06
-0.000165193
-7.57008e-06
-0.000156539
-1.18231e-05
-0.000145056
-1.58422e-05
-0.000131051
-1.94341e-05
-0.000114956
-2.2415e-05
-9.731e-05
-2.46247e-05
-7.87332e-05
-2.59387e-05
-5.98986e-05
-2.62802e-05
-4.14939e-05
-2.56279e-05
-2.41828e-05
-2.402e-05
-8.56647e-06
-2.15528e-05
4.85101e-06
-1.83737e-05
1.56911e-05
-1.46706e-05
2.37198e-05
-1.06555e-05
2.8854e-05
-6.54756e-06
3.11598e-05
-2.55908e-06
3.08441e-05
1.11403e-06
2.82433e-05
4.29537e-06
2.38167e-05
6.81658e-06
1.81511e-05
8.49933e-06
1.19766e-05
9.13066e-06
6.18779e-06
8.44636e-06
1.83039e-06
6.17453e-06
2.34536e-06
4.88021e-07
-1.82425e-06
4.50569e-07
-1.62727e-06
-9.65124e-07
7.66668e-07
-4.14313e-06
4.14269e-06
-9.21181e-06
7.82835e-06
-1.6167e-05
1.14908e-05
-2.49494e-05
1.50018e-05
-3.54859e-05
1.83419e-05
-4.77043e-05
2.15316e-05
-6.15304e-05
2.45885e-05
-7.68746e-05
2.75034e-05
-9.36155e-05
3.02315e-05
-0.000111584
3.26921e-05
-0.000130548
3.47744e-05
-0.000150208
3.63456e-05
-0.000170191
3.72615e-05
-0.000190053
3.7377e-05
-0.000209289
3.65579e-05
-0.000227348
3.46927e-05
-0.000243653
3.17031e-05
-0.000257624
2.7555e-05
-0.000268704
2.22661e-05
-0.000276389
1.59122e-05
-0.000280255
8.6303e-06
-0.000279984
6.18254e-07
-0.00027539
-7.86797e-06
-0.000266432
-1.65283e-05
-0.000253227
-2.50277e-05
-0.000236057
-3.30126e-05
-0.000215362
-4.01293e-05
-0.000191732
-4.60448e-05
-0.000165889
-5.04684e-05
-0.000138654
-5.31729e-05
-0.000110921
-5.40136e-05
-8.36064e-05
-5.29427e-05
-5.76091e-05
-5.00174e-05
-3.37621e-05
-4.53997e-05
-1.2788e-05
-3.93479e-05
4.74005e-06
-3.21987e-05
1.84287e-05
-2.43442e-05
2.80843e-05
-1.62032e-05
3.37194e-05
-8.19413e-06
3.55498e-05
-7.1643e-07
3.39877e-05
5.85744e-06
2.96306e-05
1.11737e-05
2.32589e-05
1.48711e-05
1.58388e-05
1.65507e-05
8.52976e-06
1.57554e-05
2.6939e-06
1.20104e-05
5.03926e-06
-1.6197e-07
-1.6623e-06
-1.8107e-06
2.14121e-08
-5.58238e-06
4.53831e-06
-1.173e-05
1.02903e-05
-2.03082e-05
1.64065e-05
-3.12782e-05
2.24607e-05
-4.45663e-05
2.82899e-05
-6.009e-05
3.38655e-05
-7.77606e-05
3.92022e-05
-9.74718e-05
4.42995e-05
-0.000119081
4.91124e-05
-0.00014239
5.35407e-05
-0.00016713
5.74318e-05
-0.000192947
6.05919e-05
-0.000219403
6.28008e-05
-0.000245971
6.38295e-05
-0.000272052
6.34582e-05
-0.000296989
6.14952e-05
-0.00032009
5.77935e-05
-0.000340654
5.22668e-05
-0.000358001
4.49017e-05
-0.000371501
3.57669e-05
-0.000380607
2.50176e-05
-0.000384874
1.28969e-05
-0.000383987
-2.68145e-07
-0.000377783
-1.40724e-05
-0.000366256
-2.8055e-05
-0.000349573
-4.17114e-05
-0.00032807
-5.45154e-05
-0.000302256
-6.59432e-05
-0.0002728
-7.55009e-05
-0.000240515
-8.27535e-05
-0.000206333
-8.73543e-05
-0.000171275
-8.9072e-05
-0.000136405
-8.78131e-05
-0.000102786
-8.36362e-05
-7.14296e-05
-7.6756e-05
-4.32424e-05
-6.75352e-05
-1.89773e-05
-5.64638e-05
8.06534e-07
-4.41281e-05
1.57763e-05
-3.11729e-05
2.58447e-05
-1.82626e-05
3.11751e-05
-6.04681e-06
3.21792e-05
4.85329e-06
2.95058e-05
1.38471e-05
2.40325e-05
2.03443e-05
1.68607e-05
2.37226e-05
9.32164e-06
2.32944e-05
3.01781e-06
1.83142e-05
8.05707e-06
-1.03603e-06
-6.26284e-07
-4.79242e-06
3.77776e-06
-1.15398e-05
1.12857e-05
-2.1298e-05
2.00484e-05
-3.39849e-05
2.90933e-05
-4.9492e-05
3.79677e-05
-6.77147e-05
4.65125e-05
-8.8554e-05
5.47048e-05
-0.000111901
6.25489e-05
-0.000137612
7.00105e-05
-0.000165486
7.69862e-05
-0.000195242
8.32965e-05
-0.000226506
8.86957e-05
-0.000258804
9.28905e-05
-0.000291567
9.55638e-05
-0.000324138
9.64004e-05
-0.000355793
9.5113e-05
-0.000385765
9.14666e-05
-0.00041327
8.52991e-05
-0.000437543
7.65391e-05
-0.000457859
6.52177e-05
-0.000473567
5.14756e-05
-0.000484114
3.55643e-05
-0.00048906
1.78432e-05
-0.000488101
-1.22712e-06
-0.000481081
-2.10928e-05
-0.000468
-4.11365e-05
-0.000449023
-6.06882e-05
-0.000424487
-7.90507e-05
-0.000394904
-9.55271e-05
-0.000360951
-0.000109453
-0.000323472
-0.000120233
-0.000283448
-0.000127379
-0.000241976
-0.000130543
-0.000200232
-0.000129558
-0.000159415
-0.000124453
-0.000120702
-0.00011547
-8.51784e-05
-0.000103058
-5.37873e-05
-8.78549e-05
-2.72704e-05
-7.0645e-05
-6.12659e-06
-5.23167e-05
9.4195e-06
-3.38087e-05
1.94356e-05
-1.60629e-05
2.42806e-05
8.27293e-09
2.45997e-05
1.3528e-05
2.13077e-05
2.36363e-05
1.5583e-05
2.94473e-05
8.87162e-06
3.00058e-05
2.93391e-06
2.42519e-05
1.0991e-05
-2.06804e-06
1.44174e-06
-8.29046e-06
1.00001e-05
-1.84674e-05
2.14625e-05
-3.23076e-05
3.38886e-05
-4.95424e-05
4.63281e-05
-6.99643e-05
5.83896e-05
-9.34217e-05
6.99699e-05
-0.00011979
8.10732e-05
-0.000148933
9.1692e-05
-0.000180666
0.000101743
-0.000214723
0.000111044
-0.000250741
0.000119314
-0.000288244
0.000126199
-0.00032665
0.000131297
-0.00036528
0.000134194
-0.000403378
0.000134498
-0.000440135
0.00013187
-0.000474721
0.000126052
-0.000506311
0.000116889
-0.000534118
0.000104346
-0.000557415
8.85146e-05
-0.000575556
6.96165e-05
-0.000587993
4.80015e-05
-0.00059429
2.41398e-05
-0.00059413
-1.38687e-06
-0.000587332
-2.78911e-05
-0.000573854
-5.46145e-05
-0.000553809
-8.07335e-05
-0.000527474
-0.000105385
-0.000495303
-0.000127698
-0.000457933
-0.000146824
-0.00041618
-0.000161986
-0.000371038
-0.00017252
-0.000323652
-0.000177929
-0.000275288
-0.000177922
-0.00022728
-0.000172461
-0.000180974
-0.000161776
-0.000137657
-0.000146375
-9.84858e-05
-0.000127026
-6.44171e-05
-0.000104714
-3.61497e-05
-8.05841e-05
-1.40804e-05
-5.5878e-05
1.72295e-06
-3.18662e-05
1.15312e-05
-9.79995e-06
1.59484e-05
9.11072e-06
1.58907e-05
2.3694e-05
1.25761e-05
3.27618e-05
7.52177e-06
3.50602e-05
2.57304e-06
2.92006e-05
1.3564e-05
-3.2149e-06
4.65662e-06
-1.21551e-05
1.89403e-05
-2.60721e-05
3.53795e-05
-4.43072e-05
5.21237e-05
-6.63695e-05
6.83903e-05
-9.19313e-05
8.39514e-05
-0.000120782
9.88202e-05
-0.000152762
0.000113053
-0.000187701
0.000126632
-0.000225369
0.000139411
-0.000265436
0.00015111
-0.000307457
0.000161335
-0.00035087
0.000169612
-0.000395004
0.000175431
-0.000439102
0.000178292
-0.000482343
0.00017774
-0.000523878
0.000173405
-0.000562854
0.000165028
-0.000598447
0.000152482
-0.000629878
0.000135778
-0.000656438
0.000115075
-0.000677493
9.06714e-05
-0.000692496
6.30046e-05
-0.000700994
3.26372e-05
-0.000702631
2.50243e-07
-0.000697161
-3.33605e-05
-0.000684461
-6.73146e-05
-0.000664544
-0.000100651
-0.000637579
-0.00013235
-0.000603914
-0.000161362
-0.000564092
-0.000186646
-0.000518865
-0.000207214
-0.000469193
-0.000222192
-0.000416243
-0.00023088
-0.000361351
-0.000232814
-0.000305985
-0.000227826
-0.000251675
-0.000216086
-0.000199935
-0.000198115
-0.000152175
-0.000174787
-0.000109611
-0.000147277
-7.31912e-05
-0.000117004
-4.35293e-05
-8.554e-05
-2.0867e-05
-5.45285e-05
-5.05823e-06
-2.56088e-05
4.42654e-06
-3.7406e-07
8.48426e-06
1.96362e-05
8.34731e-06
3.28988e-05
5.57279e-06
3.78347e-05
2.04357e-06
3.27298e-05
1.56076e-05
-4.44065e-06
9.09725e-06
-1.62571e-05
3.07566e-05
-3.40936e-05
5.3216e-05
-5.68862e-05
7.49163e-05
-8.38995e-05
9.54035e-05
-0.000114673
0.000114725
-0.000148928
0.000133075
-0.000186464
0.000150589
-0.000227073
0.000167241
-0.000270475
0.000182812
-0.000316278
0.000196913
-0.000363968
0.000209025
-0.000412912
0.000218556
-0.000462379
0.000224898
-0.000511564
0.000227476
-0.00055962
0.000225796
-0.000605693
0.000219478
-0.000648943
0.000208278
-0.000688566
0.000192105
-0.000723814
0.000171025
-0.000753996
0.000145257
-0.000778488
0.000115163
-0.000796733
8.12491e-05
-0.000808242
4.41466e-05
-0.000812603
4.61119e-06
-0.000809482
-3.64814e-05
-0.000798648
-7.81486e-05
-0.000779986
-0.000119314
-0.000753523
-0.000158813
-0.000719461
-0.000195425
-0.000678203
-0.000227904
-0.000630381
-0.000255035
-0.000576878
-0.000275695
-0.000518831
-0.000288927
-0.000457617
-0.000294028
-0.000394815
-0.000290628
-0.000332142
-0.000278758
-0.000271364
-0.000258894
-0.000214186
-0.000231964
-0.000162146
-0.000199318
-0.000116501
-0.000162649
-7.81473e-05
-0.000123894
-4.75556e-05
-8.51202e-05
-2.4748e-05
-4.84163e-05
-9.30002e-06
-1.58221e-05
-3.62295e-07
1.06985e-05
3.29754e-06
2.92389e-05
3.26059e-06
3.78717e-05
1.42807e-06
3.45624e-05
1.70357e-05
-5.70903e-06
1.48063e-05
-2.04692e-05
4.55167e-05
-4.22787e-05
7.50254e-05
-6.96473e-05
0.000102285
-0.000101585
0.000127341
-0.000137492
0.000150633
-0.000177018
0.000172601
-0.000219918
0.000193488
-0.00026594
0.000213263
-0.000314756
0.000231628
-0.00036592
0.000248077
-0.000418861
0.000261966
-0.000472897
0.000272593
-0.000527262
0.000279263
-0.000581135
0.000281349
-0.000633672
0.000278334
-0.000684039
0.000269844
-0.000731426
0.000255665
-0.000775066
0.000235745
-0.000814239
0.000210199
-0.000848277
0.000179294
-0.00087656
0.000143446
-0.000898516
0.000103205
-0.000913622
5.9253e-05
-0.000921406
1.23956e-05
-0.000921451
-3.64369e-05
-0.000913415
-8.61846e-05
-0.000897046
-0.000135683
-0.000872212
-0.000183647
-0.000838936
-0.000228701
-0.000797435
-0.000269405
-0.000748163
-0.000304307
-0.000691852
-0.000332005
-0.00062954
-0.000351239
-0.000562576
-0.000360992
-0.000492604
-0.0003606
-0.000421502
-0.00034986
-0.000351292
-0.000329104
-0.000284016
-0.000299241
-0.00022159
-0.000261743
-0.000165667
-0.000218571
-0.00011751
-0.000172052
-7.78994e-05
-0.000124731
-4.70913e-05
-7.92245e-05
-2.48114e-05
-3.8102e-05
-1.02879e-05
-3.82492e-06
-2.30204e-06
2.1253e-05
7.453e-07
3.48243e-05
7.81753e-07
3.45259e-05
1.78174e-05
-6.98019e-06
2.17864e-05
-2.46585e-05
6.3195e-05
-5.03705e-05
0.000100737
-8.21947e-05
0.000134109
-0.000118886
0.000164032
-0.000159707
0.000191454
-0.000204232
0.000217126
-0.000252168
0.000241424
-0.00030322
0.000264316
-0.000357015
0.000285423
-0.000413059
0.000304121
-0.000470741
0.000319648
-0.00052935
0.000331202
-0.000588106
0.000338019
-0.000646195
0.000339437
-0.000702793
0.000334933
-0.000757099
0.00032415
-0.000808341
0.000306906
-0.000855787
0.000283191
-0.00089875
0.000253161
-0.000936582
0.000217126
-0.000968675
0.000175539
-0.000994457
0.000128987
-0.00101339
7.81848e-05
-0.00102496
2.39709e-05
-0.00102871
-3.26941e-05
-0.00102419
-9.0702e-05
-0.00101104
-0.000148836
-0.000988953
-0.00020573
-0.000957764
-0.00025989
-0.000917456
-0.000309713
-0.000868242
-0.000353522
-0.000810615
-0.000389632
-0.000745414
-0.000416441
-0.000673857
-0.000432548
-0.00059756
-0.000436898
-0.000518493
-0.000428927
-0.000438905
-0.000408691
-0.000361185
-0.000376961
-0.000287689
-0.000335239
-0.000220554
-0.000285706
-0.00016152
-0.000231086
-0.00011179
-0.000174461
-7.1949e-05
-0.000119065
-4.19471e-05
-6.81039e-05
-2.11328e-05
-2.46392e-05
-8.32242e-06
8.44261e-06
-1.89287e-06
2.83948e-05
1.3266e-07
3.25004e-05
1.79501e-05
-8.21022e-06
2.99966e-05
-2.86851e-05
8.36698e-05
-5.81069e-05
0.000130159
-9.41342e-05
0.000170136
-0.000135275
0.000205173
-0.000180656
0.000236835
-0.000229776
0.000266246
-0.000282294
0.000293941
-0.000337873
0.000319894
-0.000396095
0.000343645
-0.000456432
0.000364457
-0.000518242
0.000381458
-0.000580801
0.00039376
-0.00064333
0.000400549
-0.000705032
0.000401139
-0.000765112
0.000395013
-0.000822801
0.000381839
-0.000877361
0.000361467
-0.000928099
0.000333929
-0.000974358
0.000299421
-0.00101553
0.000258294
-0.00105103
0.00021104
-0.00108032
0.000158278
-0.00110288
0.00010075
-0.00111823
3.93154e-05
-0.00112586
-2.50567e-05
-0.00112532
-9.12454e-05
-0.00111613
-0.000158025
-0.00109786
-0.000224002
-0.00107013
-0.000287624
-0.00103266
-0.00034718
-0.000985365
-0.000400815
-0.000928414
-0.000446584
-0.000862322
-0.000482532
-0.000788043
-0.000506827
-0.000707021
-0.00051792
-0.000621198
-0.00051475
-0.000532961
-0.000496928
-0.000445014
-0.000464909
-0.00036018
-0.000420073
-0.000281166
-0.00036472
-0.000210315
-0.000301937
-0.000149396
-0.00023538
-9.94613e-05
-0.000169
-6.07937e-05
-0.000106772
-3.29336e-05
-5.24994e-05
-1.47687e-05
-9.72221e-06
-4.64949e-06
1.82755e-05
-5.16502e-07
2.83674e-05
1.74336e-05
-9.35224e-06
3.93489e-05
-3.24053e-05
0.000106723
-6.5226e-05
0.00016298
-0.000105079
0.00020999
-0.00015024
0.000250333
-0.000199705
0.0002863
-0.000252899
0.00031944
-0.000309429
0.000350471
-0.000368915
0.000379381
-0.000430904
0.000405634
-0.000494833
0.000428387
-0.000560045
0.00044667
-0.000625808
0.000459523
-0.000691352
0.000466092
-0.000755894
0.000465681
-0.000818665
0.000457784
-0.000878922
0.000442096
-0.000935962
0.000418507
-0.000989126
0.000387093
-0.0010378
0.000348099
-0.00108144
0.000301927
-0.00111951
0.000249117
-0.00115157
0.00019033
-0.00117715
0.000126337
-0.00119585
5.80081e-05
-0.00120721
-1.36955e-05
-0.00121077
-8.76813e-05
-0.00120604
-0.00016276
-0.00119246
-0.000237579
-0.00116948
-0.000310602
-0.00113657
-0.000380093
-0.00109328
-0.000444099
-0.00103939
-0.000500476
-0.000974973
-0.000546951
-0.000900559
-0.000581241
-0.000817244
-0.000601235
-0.000726761
-0.000605233
-0.000631478
-0.000592211
-0.000534308
-0.000562078
-0.000438512
-0.000515869
-0.000347418
-0.000455815
-0.000264094
-0.00038526
-0.000191044
-0.00030843
-0.000129966
-0.000230078
-8.16334e-05
-0.000155104
-4.58925e-05
-8.82403e-05
-2.17624e-05
-3.38523e-05
-7.58445e-06
4.09758e-06
-1.18379e-06
2.19667e-05
1.62498e-05
-1.03586e-05
4.97075e-05
-3.56768e-05
0.000132041
-7.14744e-05
0.000198777
-0.000114663
0.000253178
-0.000163303
0.000298973
-0.000216267
0.000339264
-0.000272906
0.000376079
-0.000332772
0.000410337
-0.000395445
0.000442053
-0.000460434
0.000470623
-0.000527152
0.000495105
-0.000594924
0.000514442
-0.000663014
0.000527614
-0.000730656
0.000533734
-0.00079708
0.000532104
-0.00086153
0.000522235
-0.000923288
0.000503854
-0.000981679
0.000476898
-0.00103609
0.000441503
-0.00108597
0.000397982
-0.00113085
0.000346808
-0.00117032
0.000288588
-0.00120404
0.000224042
-0.00123167
0.000153975
-0.00125293
7.9267e-05
-0.00126749
8.57295e-07
-0.00127493
-8.02362e-05
-0.00127479
-0.000162897
-0.00126649
-0.000245886
-0.00124932
-0.000327772
-0.00122252
-0.000406893
-0.00118531
-0.000481305
-0.00113701
-0.000548772
-0.00107718
-0.000606782
-0.00100578
-0.000652642
-0.000923361
-0.000683655
-0.000831216
-0.000697378
-0.000731468
-0.000691958
-0.000627048
-0.000666498
-0.000521533
-0.000621384
-0.000418851
-0.000558496
-0.000322885
-0.000481227
-0.000237039
-0.000394276
-0.000163872
-0.000303244
-0.000104858
-0.000214118
-6.03187e-05
-0.00013278
-2.95086e-05
-6.46624e-05
-1.08038e-05
-1.46072e-05
-1.90234e-06
1.30653e-05
1.43474e-05
-1.11836e-05
6.08911e-05
-3.83659e-05
0.000159223
-7.66174e-05
0.000237029
-0.000122549
0.00029911
-0.000174032
0.000350455
-0.000229818
0.000395051
-0.000289182
0.000435442
-0.00035162
0.000472776
-0.000416668
0.000507101
-0.000483801
0.000537755
-0.000552405
0.000563709
-0.00062179
0.000583826
-0.00069121
0.000597034
-0.000759896
0.000602421
-0.000827081
0.000599289
-0.000892019
0.000587172
-0.000954008
0.000565843
-0.00101241
0.000535303
-0.00106668
0.000495768
-0.00111634
0.000447645
-0.00116104
0.000391508
-0.00120051
0.000328058
-0.00123456
0.00025809
-0.00126304
0.000182457
-0.00128582
0.000102043
-0.00130271
1.77553e-05
-0.00131346
-6.94869e-05
-0.00131767
-0.000158686
-0.00131478
-0.000248776
-0.00130404
-0.000338516
-0.00128451
-0.000426421
-0.00125513
-0.000510688
-0.00121478
-0.000589119
-0.00116246
-0.0006591
-0.00109747
-0.000717638
-0.00101963
-0.000761493
-0.000929564
-0.000787444
-0.000828866
-0.000792657
-0.000720199
-0.000775165
-0.00060723
-0.000734354
-0.000494361
-0.000671366
-0.000386288
-0.0005893
-0.000287454
-0.000493111
-0.000201499
-0.000389199
-0.000130857
-0.00028476
-7.65551e-05
-0.000187082
-3.82506e-05
-0.000102967
-1.44379e-05
-3.84199e-05
-2.71407e-06
1.34139e-06
1.16334e-05
-1.17861e-05
7.26772e-05
-4.03539e-05
0.000187791
-8.04492e-05
0.000277124
-0.000128448
0.000347109
-0.000182055
0.000404062
-0.000239911
0.000452907
-0.000301207
0.000496739
-0.000365383
0.000536952
-0.000431926
0.000573644
-0.000500275
0.000606104
-0.000569789
0.000633223
-0.000639757
0.000653794
-0.000709421
0.000666697
-0.000778
0.000671
-0.000844724
0.000666012
-0.000908854
0.000651302
-0.000969714
0.000626703
-0.00102671
0.000592304
-0.00107938
0.00054843
-0.00112735
0.000495617
-0.00117041
0.000434566
-0.00120845
0.0003661
-0.00124146
0.000291105
-0.0012695
0.000210493
-0.00129261
0.000125157
-0.00131081
3.59558e-05
-0.00132401
-5.62924e-05
-0.00133194
-0.000150753
-0.00133414
-0.000246573
-0.00132989
-0.000342767
-0.00131819
-0.000438125
-0.00129777
-0.000531105
-0.00126718
-0.000619708
-0.00122489
-0.000701391
-0.0011695
-0.000773027
-0.00110002
-0.000830977
-0.00101617
-0.000871293
-0.000918723
-0.000890101
-0.000809739
-0.000884149
-0.00069263
-0.000851463
-0.000572011
-0.000791984
-0.000453273
-0.000708038
-0.000341935
-0.000604449
-0.00024292
-0.000488215
-0.000159899
-0.00036778
-9.49004e-05
-0.000252081
-4.82206e-05
-0.000149647
-1.86208e-05
-6.80197e-05
-3.66115e-06
-1.36182e-05
7.97221e-06
-1.21323e-05
8.48096e-05
-4.15436e-05
0.000217202
-8.28023e-05
0.000318383
-0.000132125
0.000396431
-0.000187078
0.000459016
-0.000246194
0.000512022
-0.00030858
0.000559125
-0.000373609
0.000601981
-0.00044072
0.000640755
-0.000509313
0.000674697
-0.000578718
0.000702628
-0.0006482
0.000723277
-0.000716982
0.000735479
-0.000784272
0.00073829
-0.000849295
0.000731036
-0.000911328
0.000713334
-0.000969727
0.000685103
-0.00102397
0.000646546
-0.00107367
0.000598133
-0.00111861
0.000540555
-0.00115871
0.000474669
-0.00119405
0.000401438
-0.0012248
0.000321856
-0.00125121
0.000236898
-0.00127352
0.000147467
-0.00129194
5.43739e-05
-0.00130656
-4.16712e-05
-0.0013173
-0.000140014
-0.00132384
-0.00024003
-0.00132557
-0.000341032
-0.00132154
-0.000442155
-0.00131043
-0.000542219
-0.00129057
-0.000639573
-0.00126002
-0.000731934
-0.00121678
-0.000816269
-0.00115901
-0.000888752
-0.00108541
-0.000944885
-0.000995701
-0.000979813
-0.000890951
-0.000988899
-0.00077391
-0.000968503
-0.000649014
-0.000916881
-0.000522064
-0.000834988
-0.000399566
-0.000726946
-0.000287827
-0.000599954
-0.00019203
-0.000463578
-0.000115538
-0.000328572
-5.95997e-05
-0.000205585
-2.34662e-05
-0.000104153
-4.78126e-06
-3.23031e-05
3.19096e-06
-1.2198e-05
9.70076e-05
-4.18647e-05
0.000246869
-8.35555e-05
0.000360074
-0.00013341
0.000446286
-0.00018889
0.000514496
-0.000248423
0.000571555
-0.000311025
0.000621727
-0.000376002
0.000666958
-0.000442737
0.000707491
-0.000510592
0.000742552
-0.000578865
0.000770901
-0.000646798
0.00079121
-0.000713596
0.000802277
-0.000778459
0.000803153
-0.000840619
0.000793195
-0.000899376
0.000772091
-0.000954142
0.00073987
-0.00100448
0.00069688
-0.00105011
0.000643764
-0.00109095
0.000581394
-0.00112708
0.000510804
-0.00115875
0.000433104
-0.00118629
0.000349404
-0.00121014
0.000260742
-0.00123071
0.000168033
-0.00124837
7.20373e-05
-0.0012634
-2.66375e-05
-0.0012759
-0.000127513
-0.00128574
-0.000230194
-0.00129247
-0.000334296
-0.0012953
-0.000439326
-0.00129299
-0.000544536
-0.00128383
-0.000648734
-0.00126568
-0.000750079
-0.00123608
-0.000845865
-0.00119247
-0.000932369
-0.00113253
-0.00100482
-0.00105476
-0.00105759
-0.000958946
-0.00108471
-0.000846736
-0.00108071
-0.000721887
-0.00104173
-0.000590176
-0.0009667
-0.000458815
-0.000858306
-0.000335461
-0.000723308
-0.000227001
-0.000572037
-0.000138485
-0.000417089
-7.24864e-05
-0.000271584
-2.90528e-05
-0.000147587
-6.10519e-06
-5.52507e-05
-2.91424e-06
-1.19702e-05
0.000108978
-4.12778e-05
0.000276176
-8.26396e-05
0.000401435
-0.000132208
0.000495855
-0.000187375
0.000569662
-0.000246467
0.000630646
-0.000308409
0.000683669
-0.00037243
0.000730978
-0.000437858
0.000772919
-0.000504016
0.00080871
-0.000570174
0.00083706
-0.000635555
0.00085659
-0.000699352
0.000866075
-0.000760771
0.000864572
-0.000819062
0.000851487
-0.000873573
0.000826603
-0.000923789
0.000790085
-0.000969365
0.000742457
-0.00101016
0.000684554
-0.00104621
0.000617447
-0.00107775
0.000542351
-0.00110518
0.00046053
-0.00112898
0.0003732
-0.00114969
0.000281459
-0.00116789
0.000186228
-0.00118407
8.82213e-05
-0.00119866
-1.20492e-05
-0.00121191
-0.000114261
-0.00122388
-0.000218224
-0.00123435
-0.000323833
-0.00124272
-0.000430955
-0.00124797
-0.000539286
-0.00124854
-0.00064816
-0.00124231
-0.000756308
-0.0012266
-0.000861573
-0.00119834
-0.000960633
-0.00115435
-0.0010488
-0.0010919
-0.00112004
-0.00100932
-0.00116729
-0.000906765
-0.00118326
-0.000786795
-0.0011617
-0.000654584
-0.00109891
-0.000517593
-0.000995298
-0.000384592
-0.000856309
-0.000264236
-0.000692393
-0.000163559
-0.000517766
-8.68777e-05
-0.000348265
-3.54189e-05
-0.000199046
-7.65343e-06
-8.30162e-05
-1.05677e-05
-1.14481e-05
0.000120426
-3.97768e-05
0.000304505
-8.00404e-05
0.000441699
-0.000128499
0.000544314
-0.000182511
0.000623675
-0.000240314
0.000688449
-0.000300737
0.000744092
-0.000362929
0.00079317
-0.000426164
0.000836154
-0.000489726
0.000872272
-0.000552865
0.000900199
-0.000614794
0.000918519
-0.000674713
0.000925994
-0.000731845
0.000921704
-0.000785485
0.000905127
-0.000835047
0.000876164
-0.000880104
0.000835142
-0.000920426
0.000782779
-0.000955989
0.000720117
-0.000986972
0.00064843
-0.00101373
0.000569112
-0.00103677
0.000483567
-0.00105668
0.000393108
-0.00107409
0.000298876
-0.00108966
0.00020179
-0.00110396
0.000102523
-0.00111751
1.50054e-06
-0.00113069
-0.000101081
-0.00114371
-0.0002052
-0.00115656
-0.000310984
-0.00116891
-0.000418606
-0.00118002
-0.000528175
-0.00118863
-0.000639549
-0.00119284
-0.000752099
-0.00119004
-0.000864377
-0.00117693
-0.000973736
-0.00114977
-0.00107596
-0.00110476
-0.00116505
-0.00103877
-0.00123328
-0.000950223
-0.00127181
-0.000839988
-0.00127193
-0.000712023
-0.00122688
-0.000573408
-0.00113391
-0.000433584
-0.000996132
-0.000302834
-0.000823142
-0.000190371
-0.000630229
-0.000102661
-0.000435976
-4.25571e-05
-0.000259149
-9.4347e-06
-0.000116139
-2.00024e-05
-1.06436e-05
0.00013107
-3.73891e-05
0.00033125
-7.57991e-05
0.000480109
-0.000122338
0.000590853
-0.000174376
0.000675712
-0.000230071
0.000744144
-0.000288156
0.000802177
-0.000347699
0.000852714
-0.000407922
0.000896377
-0.000468078
0.000932428
-0.000527406
0.000959527
-0.000585127
0.000976239
-0.000640462
0.000981329
-0.000692678
0.000973921
-0.000741135
0.000953583
-0.00078533
0.000920359
-0.000824943
0.000874756
-0.000859859
0.000817696
-0.000890174
0.000750432
-0.00091618
0.000674435
-0.000938331
0.000591264
-0.000957205
0.000502441
-0.000973451
0.000409354
-0.000987745
0.00031317
-0.00100075
0.000214798
-0.00101309
0.000114865
-0.00102532
1.37252e-05
-0.00103788
-8.85199e-05
-0.0010511
-0.00019198
-0.00106514
-0.000296944
-0.00107992
-0.000403825
-0.00109503
-0.000513063
-0.00110959
-0.00062499
-0.00112209
-0.000739604
-0.00113023
-0.000856238
-0.00113084
-0.000973123
-0.00111993
-0.00108687
-0.00109299
-0.00119199
-0.0010456
-0.00128067
-0.000974412
-0.00134301
-0.00087828
-0.00136807
-0.000759351
-0.0013458
-0.000623606
-0.00126966
-0.000480515
-0.00113922
-0.000341623
-0.000962035
-0.000218337
-0.000753515
-0.000119613
-0.000534699
-5.04145e-05
-0.000328348
-1.14466e-05
-0.000155106
-3.1449e-05
-9.58028e-06
0.00014065
-3.41747e-05
0.000355845
-7.00112e-05
0.000515945
-0.000113856
0.000634697
-0.000163135
0.000724992
-0.00021595
0.000796959
-0.000270937
0.000857164
-0.000327087
0.000908865
-0.00038357
0.00095286
-0.00043962
0.000988477
-0.00049448
0.00101439
-0.000547394
0.00102915
-0.00059763
0.00103156
-0.000644519
0.00102081
-0.000687506
0.00099657
-0.000726189
0.000959043
-0.00076036
0.000908927
-0.000790018
0.000847353
-0.000815364
0.000775778
-0.000836777
0.000695849
-0.000854781
0.000609267
-0.000869989
0.00051765
-0.000883066
0.00042243
-0.00089468
0.000324784
-0.000905476
0.000225594
-0.000916053
0.000125442
-0.00092695
2.46215e-05
-0.000938635
-7.6834e-05
-0.000951497
-0.000179118
-0.000965816
-0.000282624
-0.000981724
-0.000387916
-0.000999112
-0.000495675
-0.0010175
-0.000606602
-0.00103586
-0.000721243
-0.0010524
-0.000839698
-0.00106436
-0.000961167
-0.00106789
-0.00108334
-0.00105818
-0.00120171
-0.00102989
-0.00130896
-0.000978065
-0.00139483
-0.000899451
-0.00144668
-0.000793922
-0.00145133
-0.000665649
-0.00139793
-0.000523349
-0.00128152
-0.000379236
-0.00110615
-0.000246705
-0.000886046
-0.000137411
-0.000643992
-5.88938e-05
-0.000406865
-1.36772e-05
-0.000200323
-4.51262e-05
-8.29223e-06
0.000148942
-3.02235e-05
0.000377776
-6.28215e-05
0.000548543
-0.000103247
0.000675123
-0.000149041
0.000770786
-0.000198263
0.000846181
-0.000249466
0.000908368
-0.000301565
0.000960964
-0.000353685
0.00100498
-0.000405051
0.00103984
-0.000454927
0.00106426
-0.0005026
0.00107683
-0.000547406
0.00107637
-0.00058876
0.00106216
-0.000626207
0.00103402
-0.000659458
0.000992294
-0.000688415
0.000937884
-0.00071318
0.000872118
-0.00073404
0.000796638
-0.000751437
0.000713246
-0.000765924
0.000623754
-0.00077812
0.000529846
-0.000788666
0.000432975
-0.000798185
0.000334304
-0.000807268
0.000234677
-0.000816454
0.000134628
-0.000826233
3.44001e-05
-0.000837048
-6.60191e-05
-0.000849297
-0.000166869
-0.000863331
-0.00026859
-0.000879425
-0.000371823
-0.000897715
-0.000477384
-0.000918091
-0.000586226
-0.000940016
-0.000699319
-0.000962285
-0.000817428
-0.000982751
-0.000940702
-0.000998054
-0.00106804
-0.00100352
-0.00119624
-0.000993377
-0.00131911
-0.000961455
-0.00142675
-0.000902498
-0.00150564
-0.000813892
-0.00153994
-0.000697392
-0.00151443
-0.000560137
-0.00141878
-0.000414232
-0.00125205
-0.00027461
-0.00102567
-0.000155648
-0.000762954
-6.78577e-05
-0.000494656
-1.61043e-05
-0.000252076
-6.12305e-05
-6.82239e-06
0.000155764
-2.56506e-05
0.000396604
-5.44187e-05
0.000577312
-9.07707e-05
0.000711475
-0.000132416
0.000812431
-0.000177407
0.000891172
-0.000224224
0.000955185
-0.00027171
0.00100845
-0.000318954
0.00105222
-0.000365182
0.00108607
-0.000409695
0.00110878
-0.000451845
0.00111898
-0.00049105
0.00111558
-0.000526829
0.00109794
-0.000558836
0.00106602
-0.000586896
0.00102035
-0.000611014
0.000962002
-0.00063138
0.000892484
-0.000648343
0.000813601
-0.000662377
0.000727281
-0.000674037
0.000635415
-0.000683915
0.000539724
-0.000692598
0.000441659
-0.000700644
0.000342349
-0.000708561
0.000242594
-0.000716808
0.000142876
-0.000725804
4.33954e-05
-0.000735934
-5.58888e-05
-0.000747571
-0.000155232
-0.00076108
-0.000255081
-0.000776816
-0.000356087
-0.000795087
-0.000459114
-0.00081607
-0.000565242
-0.000839664
-0.000675726
-0.000865252
-0.00079184
-0.000891391
-0.000914563
-0.000915441
-0.00104399
-0.000933264
-0.00117842
-0.000939155
-0.00131322
-0.00092626
-0.00143964
-0.0008877
-0.0015442
-0.000818401
-0.00160924
-0.000717307
-0.00161552
-0.000589213
-0.00154687
-0.000445225
-0.00139604
-0.00030114
-0.00116975
-0.000173857
-0.000890238
-7.71357e-05
-0.000591377
-1.86961e-05
-0.000310516
-7.99265e-05
-5.22009e-06
0.000160985
-2.05919e-05
0.000411976
-4.50279e-05
0.000601748
-7.67324e-05
0.00074318
-0.000113645
0.000849344
-0.000153847
0.000931374
-0.000195762
0.000997099
-0.000238171
0.00105086
-0.000280134
0.00109419
-0.000320889
0.00112683
-0.000359787
0.00114767
-0.000396258
0.00115545
-0.000429822
0.00114914
-0.000460107
0.00112823
-0.000486885
0.0010928
-0.000510086
0.00104355
-0.00052981
0.000981726
-0.000546312
0.000908986
-0.000559979
0.000827268
-0.00057129
0.000738592
-0.000580777
0.000644901
-0.000588977
0.000547925
-0.000596409
0.000449091
-0.000603546
0.000349486
-0.000610808
0.000249856
-0.000618565
0.000150633
-0.00062715
5.19807e-05
-0.00063688
-4.61585e-05
-0.000648076
-0.000144037
-0.000661079
-0.000242078
-0.000676268
-0.000340898
-0.000694044
-0.000441338
-0.000714779
-0.000544508
-0.000738706
-0.000651798
-0.000765722
-0.000764825
-0.000795072
-0.000885213
-0.000824942
-0.00101411
-0.000852006
-0.00115135
-0.000871088