/*--------------------------------*- C++ -*----------------------------------*\
  =========                 |
  \\      /  F ield         | OpenFOAM: The Open Source CFD Toolbox
   \\    /   O peration     | Website:  https://openfoam.org
    \\  /    A nd           | Version:  7
     \\/     M anipulation  |
\*---------------------------------------------------------------------------*/
FoamFile
{
    version     2.0;
    format      ascii;
    class       volScalarField;
    location    "1550";
    object      p;
}
// * * * * * * * * * * * * * * * * * * * * * * * * * * * * * * * * * * * * * //

dimensions      [0 2 -2 0 0 0 0];

internalField   nonuniform List<scalar> 
2500
(
3.15676e-07
7.1411e-05
-8.4739e-06
-0.000307279
-0.000781672
-0.00136922
-0.00202973
-0.00275866
-0.00358173
-0.00453959
-0.0056723
-0.00700975
-0.00856886
-0.0103493
-0.0123278
-0.01445
-0.0166239
-0.0187179
-0.0205671
-0.0219894
-0.0228101
-0.0228897
-0.0221532
-0.0206168
-0.0184066
-0.0157488
-0.0129649
-0.0104723
-0.00873285
-0.00818417
-0.00915906
-0.0117941
-0.0159767
-0.0214113
-0.0276382
-0.0340959
-0.0402556
-0.0457168
-0.0502484
-0.0537756
-0.0563484
-0.0581017
-0.0592103
-0.05985
-0.0601728
-0.0602948
-0.0602938
-0.0602124
-0.0600731
-0.059934
-6.87116e-05
4.13516e-06
-7.96561e-05
-0.000376107
-0.000828498
-0.00137267
-0.00197349
-0.00263239
-0.00337798
-0.00425055
-0.00528894
-0.00652309
-0.00797369
-0.00964849
-0.0115359
-0.013599
-0.0157671
-0.0179285
-0.0199305
-0.0215894
-0.0227128
-0.0231309
-0.0227299
-0.0214856
-0.0194931
-0.0169694
-0.0142517
-0.0117755
-0.0100213
-0.00944598
-0.010398
-0.0130363
-0.0172767
-0.0227693
-0.0290121
-0.0354568
-0.0415492
-0.0468485
-0.0511157
-0.0543239
-0.0565911
-0.0580988
-0.0590406
-0.0595891
-0.0598806
-0.0600122
-0.0600461
-0.0600114
-0.0599099
-0.0597782
-1.86912e-05
5.00096e-05
-5.69012e-05
-0.000379373
-0.000831788
-0.00133838
-0.00186898
-0.00243638
-0.00308164
-0.0038523
-0.00479248
-0.00594253
-0.00734049
-0.0090208
-0.0110034
-0.0132773
-0.015782
-0.018396
-0.0209368
-0.0231781
-0.0248806
-0.0258304
-0.0258761
-0.0249667
-0.0231944
-0.0207868
-0.0180807
-0.0155099
-0.013567
-0.0127323
-0.0133874
-0.0157305
-0.0197163
-0.0250429
-0.0312014
-0.0375705
-0.0435724
-0.0487649
-0.0528678
-0.0558157
-0.0577388
-0.0588829
-0.0595014
-0.0597991
-0.0599205
-0.0599553
-0.0599501
-0.0599145
-0.0598187
-0.0596743
0.000228531
0.000266596
0.000102151
-0.000279159
-0.000754968
-0.0012363
-0.00170221
-0.0021848
-0.00274511
-0.00345421
-0.00438547
-0.00561837
-0.00723772
-0.00932053
-0.0119097
-0.0149851
-0.0184436
-0.022097
-0.0256894
-0.0289303
-0.0315352
-0.0332646
-0.0339539
-0.0335394
-0.0320931
-0.0298176
-0.0270252
-0.0241373
-0.0216487
-0.0200659
-0.0198263
-0.0212094
-0.024264
-0.0287769
-0.0342975
-0.0402226
-0.0459299
-0.0509005
-0.0548392
-0.0576563
-0.0594033
-0.0602917
-0.060603
-0.0605972
-0.0604586
-0.060297
-0.0601628
-0.0600569
-0.0599269
-0.059762
0.000707836
0.000677725
0.000418537
-4.36483e-05
-0.000554867
-0.00102877
-0.00145986
-0.00190809
-0.00247417
-0.00328003
-0.0044627
-0.00617
-0.00854119
-0.0116719
-0.0155763
-0.0201639
-0.0252382
-0.0305182
-0.0356738
-0.0403638
-0.0442736
-0.0471458
-0.0488025
-0.049159
-0.0482447
-0.0462054
-0.0433063
-0.0399329
-0.0365568
-0.0336933
-0.0318347
-0.031369
-0.0324976
-0.0351772
-0.0391073
-0.0437827
-0.0486033
-0.0530084
-0.0565982
-0.0591855
-0.0608041
-0.0616105
-0.0617958
-0.0616105
-0.0612736
-0.0609283
-0.0606483
-0.0604468
-0.0602704
-0.0600935
0.001463
0.00132898
0.000949593
0.000397962
-0.000168211
-0.000674742
-0.0011463
-0.00169569
-0.00249218
-0.0037419
-0.0056705
-0.00849203
-0.0123622
-0.017332
-0.0233218
-0.0301234
-0.0374274
-0.0448626
-0.0520356
-0.0585662
-0.0641171
-0.068418
-0.0712812
-0.0726072
-0.0723944
-0.0707273
-0.0678041
-0.0639453
-0.0595585
-0.0551195
-0.0511313
-0.0480648
-0.0462857
-0.0459801
-0.0471017
-0.0493671
-0.0523133
-0.0554109
-0.0581929
-0.0603497
-0.0617609
-0.0624753
-0.062657
-0.0624688
-0.0620822
-0.0616564
-0.0612906
-0.0610222
-0.0608169
-0.0606454
0.0025325
0.00226969
0.0017609
0.00110937
0.000452414
-0.000166835
-0.000836503
-0.00175224
-0.00318348
-0.00544033
-0.00882474
-0.013566
-0.019761
-0.0273431
-0.0360875
-0.045646
-0.0555943
-0.0654792
-0.0748587
-0.0833324
-0.0905656
-0.0963026
-0.10037
-0.102678
-0.103221
-0.10205
-0.0992907
-0.0951777
-0.0900137
-0.0841721
-0.0780847
-0.0722174
-0.0670281
-0.0629061
-0.0601033
-0.0586768
-0.0584678
-0.0591377
-0.0602592
-0.0614306
-0.0623638
-0.0629196
-0.063097
-0.0629838
-0.0626841
-0.0623091
-0.0619584
-0.0616896
-0.0614939
-0.0613487
0.00392273
0.00352378
0.00288474
0.00211102
0.00129576
0.000411219
-0.000727863
-0.00243064
-0.00508217
-0.00907651
-0.0147293
-0.0221966
-0.0314318
-0.0421905
-0.0540734
-0.0665872
-0.0792048
-0.0914165
-0.102767
-0.112879
-0.121465
-0.128326
-0.133336
-0.136436
-0.137641
-0.137014
-0.134624
-0.130619
-0.125181
-0.118542
-0.110989
-0.102873
-0.0946067
-0.0866462
-0.0794521
-0.0734248
-0.0688282
-0.0657263
-0.0639617
-0.0632021
-0.0630434
-0.0631248
-0.0632017
-0.0631674
-0.063018
-0.062795
-0.0625612
-0.0623703
-0.0622302
-0.0621295
0.00557894
0.00505078
0.0042765
0.0033381
0.00223998
0.000843963
-0.00116213
-0.00421426
-0.00878978
-0.015297
-0.0239658
-0.0347816
-0.0474832
-0.0616128
-0.0765929
-0.0918066
-0.106666
-0.120659
-0.133377
-0.144521
-0.153895
-0.161387
-0.166941
-0.170536
-0.172218
-0.172083
-0.170175
-0.166574
-0.161366
-0.15465
-0.146553
-0.137248
-0.126979
-0.116094
-0.105058
-0.0944418
-0.0848646
-0.0768856
-0.0708663
-0.0668575
-0.064581
-0.063539
-0.0631976
-0.0631425
-0.0631431
-0.0631236
-0.0630789
-0.0630321
-0.062987
-0.0629419
0.00735075
0.00670754
0.00578689
0.00460186
0.00302371
0.000773582
-0.00260058
-0.00763964
-0.0148432
-0.0245285
-0.0367318
-0.0511873
-0.0673794
-0.0846371
-0.10224
-0.119507
-0.135865
-0.150875
-0.164234
-0.175762
-0.185372
-0.193043
-0.198782
-0.202607
-0.204581
-0.204827
-0.203384
-0.200293
-0.195585
-0.189282
-0.181392
-0.171931
-0.160947
-0.14857
-0.135075
-0.120941
-0.106876
-0.0937731
-0.0825536
-0.0739251
-0.0681375
-0.0648901
-0.0634814
-0.06312
-0.0631952
-0.0633768
-0.0635569
-0.0636948
-0.0637699
-0.0637845
0.00898015
0.00824091
0.00713838
0.00557376
0.00324993
-0.00026609
-0.00554968
-0.0131831
-0.0235843
-0.0368659
-0.0527827
-0.0707742
-0.0900751
-0.109849
-0.129311
-0.14781
-0.164871
-0.180189
-0.193603
-0.205054
-0.21455
-0.222136
-0.227862
-0.231765
-0.233909
-0.234422
-0.233337
-0.230685
-0.226484
-0.220725
-0.213372
-0.204355
-0.193589
-0.181008
-0.166627
-0.150645
-0.133557
-0.116228
-0.099871
-0.0858213
-0.0751507
-0.0682527
-0.0646833
-0.0634148
-0.0633424
-0.0636856
-0.0640843
-0.06442
-0.064625
-0.0646999
0.0101137
0.00928329
0.00793178
0.00581027
0.00243412
-0.00277302
-0.0104591
-0.0211531
-0.0350784
-0.0520502
-0.0714936
-0.0925603
-0.114292
-0.135779
-0.156275
-0.175252
-0.192393
-0.207555
-0.220706
-0.231884
-0.241155
-0.248593
-0.254261
-0.2582
-0.260461
-0.261157
-0.260312
-0.257957
-0.254114
-0.248781
-0.241925
-0.233467
-0.223282
-0.211205
-0.197066
-0.180775
-0.162455
-0.142621
-0.122325
-0.103144
-0.0868752
-0.0749331
-0.0677348
-0.0645165
-0.0638004
-0.0641667
-0.0647622
-0.0652902
-0.0656273
-0.0657654
0.0103225
0.0093868
0.00769517
0.0048179
8.72231e-05
-0.00717967
-0.0176258
-0.0316223
-0.0491029
-0.0695317
-0.0920078
-0.115453
-0.138815
-0.161221
-0.18206
-0.200985
-0.217854
-0.232666
-0.245484
-0.256396
-0.265487
-0.272833
-0.278488
-0.282483
-0.284851
-0.285683
-0.284991
-0.282808
-0.27916
-0.27406
-0.267499
-0.25943
-0.249753
-0.238306
-0.224863
-0.209167
-0.191028
-0.1705
-0.148133
-0.125213
-0.103754
-0.0860498
-0.0737771
-0.0671612
-0.0648843
-0.0649291
-0.0656738
-0.066386
-0.0668635
-0.0670768
0.00916198
0.0080955
0.00596199
0.00214168
-0.00418991
-0.0137648
-0.027133
-0.0444159
-0.0651983
-0.0885886
-0.113413
-0.13846
-0.162696
-0.185382
-0.206103
-0.2247
-0.241184
-0.255648
-0.268204
-0.27895
-0.287963
-0.295301
-0.301003
-0.305085
-0.307561
-0.308509
-0.307925
-0.305842
-0.302283
-0.297272
-0.290819
-0.282913
-0.273505
-0.26249
-0.249682
-0.23481
-0.21754
-0.197585
-0.174937
-0.150229
-0.125062
-0.101995
-0.0838245
-0.0723003
-0.0671132
-0.0661387
-0.0668699
-0.0677745
-0.0684167
-0.0687305
0.00625539
0.00502576
0.00235811
-0.00254705
-0.0106277
-0.0225987
-0.0388358
-0.0591486
-0.0827574
-0.108456
-0.134886
-0.160814
-0.185321
-0.207864
-0.22823
-0.246423
-0.262555
-0.276764
-0.289168
-0.299853
-0.308873
-0.316263
-0.322047
-0.326228
-0.328811
-0.329858
-0.329366
-0.327356
-0.323848
-0.318865
-0.312425
-0.304536
-0.295192
-0.28435
-0.271909
-0.257672
-0.241326
-0.22246
-0.200691
-0.175974
-0.149097
-0.122134
-0.0983123
-0.0808606
-0.0712278
-0.0681063
-0.0684231
-0.0695169
-0.0703598
-0.0708165
0.0013636
-5.98267e-05
-0.00332534
-0.00938703
-0.0192444
-0.0335316
-0.0523907
-0.0752938
-0.101123
-0.128432
-0.155779
-0.182006
-0.206372
-0.228545
-0.248486
-0.26631
-0.28218
-0.296237
-0.308582
-0.319272
-0.328339
-0.3358
-0.341669
-0.345941
-0.348616
-0.34975
-0.349341
-0.3474
-0.343944
-0.338987
-0.332546
-0.324634
-0.315262
-0.30443
-0.292108
-0.278203
-0.262511
-0.244673
-0.22419
-0.200578
-0.173801
-0.144955
-0.116811
-0.0933797
-0.0780562
-0.0713567
-0.0704983
-0.0716787
-0.0727698
-0.0734256
-0.00556643
-0.00720477
-0.0110913
-0.0183016
-0.029844
-0.0462218
-0.0673124
-0.092261
-0.119668
-0.147936
-0.175634
-0.201747
-0.225736
-0.247456
-0.266994
-0.284527
-0.300222
-0.314202
-0.326535
-0.337253
-0.346368
-0.353889
-0.359824
-0.364168
-0.366916
-0.36812
-0.367786
-0.365915
-0.362521
-0.357611
-0.351197
-0.343286
-0.333891
-0.323026
-0.3107
-0.296901
-0.281545
-0.264413
-0.245086
-0.222951
-0.197426
-0.168585
-0.138091
-0.109714
-0.0882325
-0.0765664
-0.0734141
-0.0743623
-0.0757606
-0.0766642
-0.0143871
-0.0162472
-0.0207347
-0.0290122
-0.0420499
-0.0601896
-0.0830419
-0.109464
-0.137847
-0.166529
-0.194162
-0.219905
-0.243411
-0.264678
-0.283872
-0.301186
-0.316768
-0.330706
-0.343039
-0.353778
-0.362924
-0.370481
-0.376457
-0.38085
-0.383652
-0.384912
-0.384641
-0.382838
-0.37951
-0.374665
-0.368307
-0.36044
-0.351068
-0.340204
-0.327867
-0.314082
-0.298851
-0.282099
-0.263577
-0.242769
-0.218913
-0.191361
-0.160506
-0.129
-0.101915
-0.0843799
-0.0776306
-0.0777285
-0.0794559
-0.0806444
-0.0247704
-0.0268437
-0.0318746
-0.0410818
-0.05536
-0.0748804
-0.0990079
-0.126367
-0.155216
-0.183899
-0.211192
-0.236433
-0.259431
-0.280287
-0.299199
-0.316346
-0.331844
-0.345747
-0.35807
-0.36881
-0.377964
-0.385535
-0.391531
-0.395954
-0.398795
-0.400096
-0.39988
-0.398136
-0.394873
-0.390099
-0.383814
-0.37602
-0.366718
-0.355911
-0.343613
-0.329854
-0.314676
-0.298098
-0.280042
-0.260194
-0.237892
-0.212187
-0.182475
-0.149889
-0.118657
-0.0951742
-0.0836538
-0.0820077
-0.0839612
-0.0854791
-0.036255
-0.0385176
-0.0440075
-0.0539738
-0.0692098
-0.0897237
-0.114673
-0.142512
-0.171432
-0.199832
-0.22663
-0.251321
-0.273836
-0.294331
-0.313007
-0.330017
-0.34544
-0.3593
-0.371596
-0.382318
-0.391461
-0.399027
-0.40503
-0.40947
-0.412339
-0.413672
-0.413499
-0.411806
-0.408603
-0.403895
-0.397687
-0.38998
-0.380772
-0.370064
-0.357862
-0.344186
-0.32908
-0.312608
-0.294804
-0.275561
-0.254451
-0.230582
-0.202822
-0.170918
-0.13749
-0.108892
-0.0919119
-0.0874934
-0.0893673
-0.0912879
-0.0483049
-0.0507206
-0.0565701
-0.0671142
-0.0830281
-0.104179
-0.129563
-0.157523
-0.186235
-0.214183
-0.240419
-0.264567
-0.286642
-0.306824
-0.325298
-0.342185
-0.357529
-0.371335
-0.383589
-0.394278
-0.403397
-0.410951
-0.41695
-0.4214
-0.42429
-0.425645
-0.425508
-0.423857
-0.420705
-0.416057
-0.40992
-0.402298
-0.393193
-0.382604
-0.370534
-0.356994
-0.342016
-0.325668
-0.308036
-0.289162
-0.268867
-0.246515
-0.220901
-0.190845
-0.15717
-0.125008
-0.102603
-0.0944655
-0.0957665
-0.0981829
-0.0603698
-0.0628916
-0.0689968
-0.0799443
-0.0962825
-0.117767
-0.14328
-0.171103
-0.199434
-0.226848
-0.252516
-0.276161
-0.297846
-0.317756
-0.336052
-0.35282
-0.368081
-0.381823
-0.394025
-0.404674
-0.413765
-0.421301
-0.427293
-0.431748
-0.434655
-0.436025
-0.435917
-0.434301
-0.43119
-0.426593
-0.420517
-0.412972
-0.403963
-0.393493
-0.381568
-0.368195
-0.353394
-0.33722
-0.319769
-0.301156
-0.281402
-0.260175
-0.236499
-0.208822
-0.176461
-0.142619
-0.115579
-0.103116
-0.103268
-0.106221
-0.071935
-0.0745119
-0.0807677
-0.0919615
-0.108508
-0.130084
-0.155502
-0.183021
-0.210883
-0.237748
-0.262884
-0.286081
-0.307427
-0.3271
-0.345235
-0.361889
-0.377065
-0.390739
-0.402887
-0.413496
-0.422559
-0.430078
-0.436062
-0.44052
-0.443439
-0.444819
-0.444734
-0.443145
-0.440067
-0.435509
-0.429484
-0.422003
-0.413076
-0.402715
-0.390929
-0.377727
-0.363128
-0.347171
-0.32994
-0.311575
-0.292211
-0.271784
-0.249673
-0.2244
-0.194343
-0.160635
-0.130325
-0.113457
-0.111927
-0.115342
-0.0825816
-0.0851196
-0.0914422
-0.102744
-0.119323
-0.140809
-0.16598
-0.193105
-0.220473
-0.246821
-0.271484
-0.294295
-0.315354
-0.334822
-0.352811
-0.369359
-0.384453
-0.398063
-0.410161
-0.420734
-0.429774
-0.43728
-0.443259
-0.447718
-0.450647
-0.452033
-0.451967
-0.450397
-0.447341
-0.442812
-0.436823
-0.42939
-0.420528
-0.410256
-0.398591
-0.385548
-0.371148
-0.355426
-0.338452
-0.320359
-0.301331
-0.281491
-0.260569
-0.237427
-0.210099
-0.177967
-0.146031
-0.125246
-0.121646
-0.125305
-0.0919918
-0.0943372
-0.10066
-0.111962
-0.128436
-0.1497
-0.174531
-0.201226
-0.228122
-0.254011
-0.278275
-0.300768
-0.321587
-0.340882
-0.358744
-0.375197
-0.390219
-0.403774
-0.415834
-0.426381
-0.435406
-0.442907
-0.448884
-0.453347
-0.456284
-0.457677
-0.457621
-0.456064
-0.453022
-0.448508
-0.442539
-0.435134
-0.426315
-0.416107
-0.404536
-0.391626
-0.377405
-0.361909
-0.345202
-0.327403
-0.308708
-0.289342
-0.269313
-0.247917
-0.223305
-0.193683
-0.161726
-0.137955
-0.132082
-0.135686
-0.0999173
-0.101934
-0.10815
-0.119375
-0.13564
-0.156587
-0.181026
-0.207293
-0.233767
-0.259275
-0.283219
-0.30546
-0.32609
-0.345243
-0.363
-0.379375
-0.394339
-0.407855
-0.419891
-0.430427
-0.439451
-0.446956
-0.452941
-0.45741
-0.460357
-0.461761
-0.46171
-0.460161
-0.457121
-0.452607
-0.446639
-0.43924
-0.430437
-0.420262
-0.408749
-0.395935
-0.381856
-0.366557
-0.3501
-0.332597
-0.314238
-0.295292
-0.275958
-0.255931
-0.233753
-0.207076
-0.176428
-0.150831
-0.142692
-0.145947
-0.106191
-0.107792
-0.113756
-0.12483
-0.140818
-0.161388
-0.18541
-0.211267
-0.237376
-0.262581
-0.286284
-0.308339
-0.328824
-0.347868
-0.365545
-0.381862
-0.39679
-0.410288
-0.42232
-0.432863
-0.441902
-0.449425
-0.455429
-0.459912
-0.462872
-0.464287
-0.464239
-0.462695
-0.459647
-0.45512
-0.449134
-0.441716
-0.432898
-0.422719
-0.411224
-0.39846
-0.384474
-0.36932
-0.353071
-0.335836
-0.317799
-0.299243
-0.280478
-0.261511
-0.241371
-0.217673
-0.189266
-0.163031
-0.152838
-0.155516
-0.110747
-0.111874
-0.117439
-0.128266
-0.143916
-0.164057
-0.187636
-0.213102
-0.238903
-0.263886
-0.287435
-0.309377
-0.329778
-0.348753
-0.366378
-0.382663
-0.397579
-0.41108
-0.423131
-0.433701
-0.442772
-0.450328
-0.456359
-0.46086
-0.463827
-0.465247
-0.465195
-0.463655
-0.460591
-0.456036
-0.450014
-0.442552
-0.433688
-0.423469
-0.411948
-0.399183
-0.385232
-0.370163
-0.354057
-0.337034
-0.319277
-0.301074
-0.282789
-0.264648
-0.246141
-0.225192
-0.199552
-0.173735
-0.161889
-0.163852
-0.113612
-0.114233
-0.119264
-0.129732
-0.14498
-0.164634
-0.187733
-0.2128
-0.238323
-0.26314
-0.2866
-0.308494
-0.328863
-0.347815
-0.365427
-0.381714
-0.396649
-0.410188
-0.42229
-0.432922
-0.442057
-0.449678
-0.455768
-0.460318
-0.463322
-0.464764
-0.464688
-0.463118
-0.460004
-0.455383
-0.449283
-0.441738
-0.432792
-0.422493
-0.410901
-0.398081
-0.384103
-0.369047
-0.35301
-0.336121
-0.318574
-0.300661
-0.282779
-0.265289
-0.248056
-0.229485
-0.206792
-0.182232
-0.169274
-0.170473
-0.114894
-0.115012
-0.119386
-0.129355
-0.144114
-0.163214
-0.185776
-0.210416
-0.235665
-0.260348
-0.28377
-0.305672
-0.326061
-0.345033
-0.362668
-0.378989
-0.393974
-0.407582
-0.419766
-0.430488
-0.439715
-0.447424
-0.453594
-0.458212
-0.461267
-0.462748
-0.462674
-0.461083
-0.457919
-0.453222
-0.447025
-0.439361
-0.430277
-0.419831
-0.408091
-0.395136
-0.381054
-0.365933
-0.349879
-0.333034
-0.315605
-0.297898
-0.280333
-0.263351
-0.247096
-0.230485
-0.210663
-0.187952
-0.174495
-0.174963
-0.11477
-0.114421
-0.118041
-0.127339
-0.141486
-0.159935
-0.181875
-0.206024
-0.230967
-0.255521
-0.278938
-0.300894
-0.321353
-0.340392
-0.35809
-0.374482
-0.389553
-0.403264
-0.415565
-0.426412
-0.435766
-0.443595
-0.449872
-0.45458
-0.457702
-0.459229
-0.459162
-0.457551
-0.454329
-0.449539
-0.443221
-0.435408
-0.426152
-0.415515
-0.403574
-0.390413
-0.376128
-0.360825
-0.344632
-0.327716
-0.310297
-0.292691
-0.27534
-0.25874
-0.243223
-0.228163
-0.210975
-0.190462
-0.177127
-0.176955
-0.113469
-0.112723
-0.115529
-0.12396
-0.137326
-0.15499
-0.176182
-0.199728
-0.224286
-0.248674
-0.272086
-0.294126
-0.314698
-0.333852
-0.351663
-0.36817
-0.383369
-0.397224
-0.409684
-0.420697
-0.430217
-0.438204
-0.444623
-0.449448
-0.45266
-0.454245
-0.454192
-0.45256
-0.449274
-0.444376
-0.437911
-0.429917
-0.420444
-0.409562
-0.397352
-0.383909
-0.369336
-0.353754
-0.337305
-0.320173
-0.302611
-0.28497
-0.267714
-0.251366
-0.23639
-0.222513
-0.207629
-0.189455
-0.176801
-0.176125
-0.111254
-0.110211
-0.112186
-0.119554
-0.131922
-0.148621
-0.168893
-0.19167
-0.215705
-0.239834
-0.263201
-0.285328
-0.306048
-0.325366
-0.343341
-0.360016
-0.375394
-0.389442
-0.402109
-0.413337
-0.423069
-0.431256
-0.437855
-0.442833
-0.446162
-0.447824
-0.447802
-0.446148
-0.442797
-0.437781
-0.431147
-0.422937
-0.413203
-0.402019
-0.389472
-0.375661
-0.360701
-0.344725
-0.327892
-0.310411
-0.292562
-0.274726
-0.257409
-0.241169
-0.226553
-0.213535
-0.200586
-0.184724
-0.173193
-0.172176
-0.108403
-0.107178
-0.10836
-0.114497
-0.125618
-0.141117
-0.160247
-0.182033
-0.205341
-0.229053
-0.25228
-0.274463
-0.295346
-0.314873
-0.333073
-0.349979
-0.365598
-0.379899
-0.392831
-0.404328
-0.414325
-0.422764
-0.42959
-0.43476
-0.43824
-0.440006
-0.440037
-0.438368
-0.434955
-0.429813
-0.422991
-0.414533
-0.404496
-0.392953
-0.379995
-0.365729
-0.350277
-0.333784
-0.31643
-0.298447
-0.280149
-0.261958
-0.244425
-0.228144
-0.213709
-0.201251
-0.189855
-0.176148
-0.166019
-0.164826
-0.105186
-0.103892
-0.10437
-0.109172
-0.118793
-0.132812
-0.150521
-0.171036
-0.193345
-0.216411
-0.239338
-0.261494
-0.282529
-0.302302
-0.320791
-0.338006
-0.353944
-0.368574
-0.381841
-0.393676
-0.404003
-0.412751
-0.419858
-0.42527
-0.428943
-0.430846
-0.430955
-0.429287
-0.425819
-0.420548
-0.413521
-0.404788
-0.394406
-0.382447
-0.369006
-0.354193
-0.33814
-0.321003
-0.302982
-0.284337
-0.265421
-0.246703
-0.228785
-0.21231
-0.197915
-0.185733
-0.175496
-0.163689
-0.155032
-0.153804
-0.101838
-0.100571
-0.100478
-0.103934
-0.111842
-0.124071
-0.140027
-0.15893
-0.179901
-0.202015
-0.224408
-0.246395
-0.267528
-0.287568
-0.306412
-0.324025
-0.34038
-0.355436
-0.36913
-0.381387
-0.392121
-0.401252
-0.408705
-0.414416
-0.418332
-0.420413
-0.42063
-0.418988
-0.415477
-0.410077
-0.402836
-0.393803
-0.383036
-0.370607
-0.35661
-0.341159
-0.324393
-0.306483
-0.287647
-0.26818
-0.248476
-0.229056
-0.21058
-0.193745
-0.179242
-0.167131
-0.157638
-0.147387
-0.140042
-0.138853
-0.0985442
-0.0973728
-0.0968715
-0.0990743
-0.105141
-0.115281
-0.129111
-0.146
-0.165228
-0.186011
-0.207555
-0.229159
-0.250284
-0.270578
-0.289837
-0.307947
-0.324838
-0.340441
-0.35468
-0.367465
-0.378705
-0.388305
-0.396182
-0.402261
-0.406479
-0.408788
-0.409155
-0.407567
-0.404031
-0.398511
-0.39105
-0.381698
-0.370511
-0.357559
-0.342937
-0.326759
-0.309172
-0.290361
-0.270568
-0.250122
-0.229466
-0.209179
-0.18998
-0.172621
-0.157829
-0.14565
-0.136479
-0.127364
-0.120951
-0.119742
-0.0954348
-0.0943997
-0.0936595
-0.0947954
-0.099014
-0.106821
-0.118133
-0.132556
-0.149573
-0.168576
-0.188885
-0.209815
-0.230761
-0.251254
-0.270964
-0.289673
-0.307235
-0.323532
-0.338459
-0.35191
-0.363776
-0.373956
-0.382352
-0.388881
-0.393473
-0.39607
-0.396634
-0.39514
-0.391604
-0.385977
-0.378296
-0.368612
-0.356975
-0.343455
-0.328143
-0.311157
-0.29265
-0.272821
-0.251941
-0.230375
-0.20862
-0.187315
-0.167242
-0.149199
-0.133942
-0.121524
-0.112286
-0.103806
-0.0977459
-0.0962349
-0.0925878
-0.0917071
-0.0908815
-0.0911965
-0.0936856
-0.0990189
-0.107447
-0.11892
-0.133207
-0.149927
-0.16855
-0.188449
-0.208979
-0.229559
-0.249721
-0.269116
-0.287488
-0.304645
-0.320433
-0.334711
-0.347355
-0.358246
-0.367278
-0.374359
-0.379409
-0.382366
-0.383185
-0.381833
-0.378327
-0.372615
-0.364724
-0.354701
-0.342594
-0.32847
-0.312417
-0.294556
-0.275048
-0.254108
-0.232036
-0.209238
-0.186264
-0.163817
-0.142736
-0.123858
-0.107956
-0.0950428
-0.0854133
-0.0769395
-0.0704794
-0.0679915
-0.0900355
-0.0893176
-0.0885293
-0.088282
-0.0892572
-0.0920981
-0.0973501
-0.105399
-0.116413
-0.130311
-0.14676
-0.165223
-0.185042
-0.205541
-0.226108
-0.246242
-0.265551
-0.283738
-0.300572
-0.315865
-0.32946
-0.34122
-0.351027
-0.358778
-0.364388
-0.36779
-0.368934
-0.367784
-0.364346
-0.358582
-0.3505
-0.340143
-0.32756
-0.312813
-0.29599
-0.277214
-0.256655
-0.234548
-0.211218
-0.187118
-0.162848
-0.139168
-0.116964
-0.0971025
-0.0803459
-0.0666285
-0.0562918
-0.0470349
-0.0393534
-0.0346111
-0.0877691
-0.0872269
-0.0865663
-0.0859806
-0.0856905
-0.0861261
-0.0880245
-0.0922447
-0.0994667
-0.110008
-0.123789
-0.140395
-0.159177
-0.179381
-0.200256
-0.221137
-0.241475
-0.260841
-0.278902
-0.295403
-0.310137
-0.322941
-0.333678
-0.342235
-0.348522
-0.352468
-0.35402
-0.35314
-0.349824
-0.344051
-0.335812
-0.325145
-0.312101
-0.296741
-0.279153
-0.259463
-0.237851
-0.214572
-0.18998
-0.164564
-0.138971
-0.114001
-0.0905716
-0.0695529
-0.0516808
-0.0368106
-0.025391
-0.0144211
-0.00500644
0.00396478
-0.0857319
-0.0853956
-0.0849325
-0.08416
-0.0828057
-0.0809731
-0.0794675
-0.0795916
-0.0826071
-0.0893266
-0.0999937
-0.11435
-0.131777
-0.151452
-0.172496
-0.194079
-0.215486
-0.236137
-0.255577
-0.273457
-0.289511
-0.303532
-0.31536
-0.324868
-0.33196
-0.33656
-0.338613
-0.338084
-0.33496
-0.329238
-0.320895
-0.309968
-0.296511
-0.280585
-0.262283
-0.241736
-0.219136
-0.194754
-0.168969
-0.142297
-0.115409
-0.089122
-0.0643465
-0.0419271
-0.022553
-0.00603767
0.00705374
0.020802
0.0317191
0.0475471
-0.083803
-0.0837275
-0.08352
-0.0826165
-0.0802843
-0.0762985
-0.0714519
-0.0674078
-0.0660024
-0.0685996
-0.0758286
-0.0876295
-0.103433
-0.122362
-0.143419
-0.165617
-0.188075
-0.210053
-0.230963
-0.250349
-0.267865
-0.283252
-0.296317
-0.306914
-0.314934
-0.320301
-0.322958
-0.322872
-0.320025
-0.314428
-0.306062
-0.294958
-0.281175
-0.264782
-0.245876
-0.224599
-0.201154
-0.175824
-0.149002
-0.121209
-0.0931103
-0.0654926
-0.0392102
-0.0150283
0.00645316
0.0254777
0.0414498
0.0594318
0.0717646
0.0982202
-0.0817878
-0.0820397
-0.0821209
-0.0810313
-0.0776655
-0.0715785
-0.0635448
-0.055491
-0.04974
-0.0481851
-0.0518679
-0.0609637
-0.0749784
-0.0929999
-0.113924
-0.136623
-0.160058
-0.183337
-0.205733
-0.226675
-0.245733
-0.262582
-0.276988
-0.288779
-0.297834
-0.304069
-0.307428
-0.30788
-0.305409
-0.30003
-0.291745
-0.280583
-0.266608
-0.2499
-0.230568
-0.208764
-0.184699
-0.158661
-0.131036
-0.102321
-0.073128
-0.0441573
-0.0161418
0.0103011
0.0347371
0.0575968
0.0784889
0.103259
0.120256
0.163297
-0.0794725
-0.0800802
-0.0804474
-0.0790073
-0.0744084
-0.0661984
-0.0552194
-0.0435594
-0.0338783
-0.0284933
-0.0288244
-0.0352941
-0.0475108
-0.0645523
-0.0852344
-0.108311
-0.132606
-0.157088
-0.1809
-0.203362
-0.223952
-0.242281
-0.258063
-0.2711
-0.281251
-0.288426
-0.292567
-0.293646
-0.291652
-0.2866
-0.278518
-0.267443
-0.253449
-0.236633
-0.217112
-0.195046
-0.170649
-0.1442
-0.116051
-0.0866334
-0.0564534
-0.0260573
0.00402016
0.0333924
0.0618785
0.0902283
0.118448
0.153628
0.183404
0.248088
-0.0769613
-0.0778102
-0.0783083
-0.0762631
-0.0702138
-0.0597859
-0.0461179
-0.0314611
-0.0185837
-0.0100474
-0.00755806
-0.0117527
-0.0223536
-0.0384605
-0.0588473
-0.0821845
-0.107189
-0.132714
-0.157793
-0.181644
-0.203664
-0.223395
-0.240508
-0.254767
-0.266015
-0.27415
-0.279116
-0.280885
-0.279458
-0.274853
-0.267106
-0.256269
-0.242438
-0.225731
-0.206275
-0.184228
-0.159792
-0.133216
-0.104792
-0.0748497
-0.043733
-0.0117585
0.0208456
0.0540726
0.088167
0.12432
0.162846
0.212501
0.260001
0.338566
-0.0755395
-0.0762377
-0.076366
-0.0731419
-0.0652619
-0.0526096
-0.0365298
-0.0195325
-0.00439515
0.0063805
0.0108961
0.00837018
-0.000996626
-0.0163429
-0.0364446
-0.059935
-0.0854648
-0.111808
-0.137913
-0.162922
-0.18616
-0.207112
-0.225404
-0.240772
-0.253035
-0.262085
-0.267858
-0.270334
-0.26952
-0.265447
-0.258172
-0.247737
-0.234229
-0.217794
-0.198581
-0.176748
-0.152471
-0.12595
-0.0973985
-0.0670164
-0.0349447
-0.00119071
0.0344768
0.0727246
0.11472
0.162792
0.21801
0.289133
0.349497
0.424465
-0.0797126
-0.0790134
-0.077405
-0.0717956
-0.0612484
-0.0460093
-0.0276827
-0.00887047
0.00764708
0.0196579
0.0253968
0.0238625
0.0152423
0.000375022
-0.0195398
-0.0431334
-0.069029
-0.0959564
-0.122813
-0.148686
-0.17285
-0.194748
-0.213971
-0.230226
-0.243321
-0.253132
-0.259597
-0.262694
-0.262435
-0.258862
-0.252035
-0.242046
-0.228972
-0.212894
-0.19397
-0.172378
-0.148281
-0.121833
-0.0931666
-0.0623434
-0.0292793
0.00639033
0.0455143
0.0898068
0.142186
0.207876
0.291669
0.403586
0.495847
0.603425
-0.103145
-0.0953253
-0.0868799
-0.0760916
-0.0617279
-0.0433956
-0.0227392
-0.00233746
0.0153615
0.0281467
0.0343279
0.0332179
0.0250078
0.0104878
-0.00918811
-0.0326856
-0.0586435
-0.0857874
-0.112995
-0.139327
-0.164024
-0.186499
-0.206317
-0.223163
-0.236828
-0.247179
-0.254146
-0.257705
-0.25787
-0.254683
-0.248209
-0.238535
-0.225757
-0.209987
-0.191349
-0.169982
-0.146037
-0.119638
-0.0908478
-0.059605
-0.0256074
0.0118886
0.0543978
0.104841
0.168346
0.254406
0.375697
0.55574
0.767701
1.10786
-0.189981
-0.112226
-0.0806385
-0.0714098
-0.0581316
-0.0387568
-0.0170575
0.00395178
0.0217614
0.0341958
0.0398492
0.0382385
0.0296356
0.0148598
-0.00494191
-0.0284718
-0.0544144
-0.0815344
-0.108737
-0.135095
-0.159857
-0.182433
-0.202381
-0.219382
-0.233218
-0.243751
-0.250905
-0.254655
-0.255011
-0.252014
-0.245728
-0.236238
-0.223644
-0.208054
-0.189591
-0.168384
-0.14457
-0.118244
-0.0894113
-0.0579138
-0.0232847
0.0154997
0.0604314
0.115253
0.186522
0.286584
0.435328
0.680387
1.07938
1.82854
)
;

boundaryField
{
    movingWall
    {
        type            zeroGradient;
    }
    fixedWalls
    {
        type            zeroGradient;
    }
    frontAndBack
    {
        type            empty;
    }
}


// ************************************************************************* //
