/*--------------------------------*- C++ -*----------------------------------*\
  =========                 |
  \\      /  F ield         | OpenFOAM: The Open Source CFD Toolbox
   \\    /   O peration     | Website:  https://openfoam.org
    \\  /    A nd           | Version:  7
     \\/     M anipulation  |
\*---------------------------------------------------------------------------*/
FoamFile
{
    version     2.0;
    format      ascii;
    class       surfaceScalarField;
    location    "1550";
    object      phi;
}
// * * * * * * * * * * * * * * * * * * * * * * * * * * * * * * * * * * * * * //

dimensions      [0 3 -1 0 0 0 0];

internalField   nonuniform List<scalar> 
4900
(
1.69798e-06
-1.70564e-06
6.22329e-06
-4.52535e-06
1.17163e-05
-5.49305e-06
1.65025e-05
-4.78616e-06
1.975e-05
-3.24747e-06
2.13891e-05
-1.63911e-06
2.17676e-05
-3.78513e-07
2.1262e-05
5.0552e-07
2.00157e-05
1.24634e-06
1.78645e-05
2.15114e-06
1.44153e-05
3.44914e-06
9.18129e-06
5.234e-06
1.6713e-06
7.50995e-06
-8.56663e-06
1.02379e-05
-2.18819e-05
1.33153e-05
-3.84372e-05
1.65553e-05
-5.81368e-05
1.96995e-05
-8.05449e-05
2.2408e-05
-0.000104823
2.42781e-05
-0.000129714
2.48911e-05
-0.00015359
2.38762e-05
-0.000174565
2.09749e-05
-0.000190657
1.60921e-05
-0.000199992
9.33452e-06
-0.000201048
1.05642e-06
-0.000192886
-8.16231e-06
-0.000175261
-1.76247e-05
-0.000148696
-2.65651e-05
-0.000114485
-3.42111e-05
-7.46538e-05
-3.98311e-05
-3.18549e-05
-4.27989e-05
1.07961e-05
-4.2651e-05
5.00427e-05
-3.92466e-05
8.30342e-05
-3.29915e-05
0.000107595
-2.45611e-05
0.000122462
-1.4867e-05
0.000127522
-5.05973e-06
0.000123857
3.66502e-06
0.000113465
1.03917e-05
9.87388e-05
1.47265e-05
8.20205e-05
1.67183e-05
6.52476e-05
1.67729e-05
4.97654e-05
1.54822e-05
3.63076e-05
1.34578e-05
2.51012e-05
1.12063e-05
1.60385e-05
9.06277e-06
8.89239e-06
7.14606e-06
3.59373e-06
5.29865e-06
5.04995e-07
3.08872e-06
5.04994e-07
4.47387e-06
-6.17957e-06
1.38479e-05
-1.38994e-05
2.43103e-05
-1.59555e-05
3.28989e-05
-1.33747e-05
3.80016e-05
-8.35026e-06
3.92282e-05
-2.86572e-06
3.68604e-05
1.98926e-06
3.1205e-05
6.16081e-06
2.21541e-05
1.02972e-05
9.0797e-06
1.52255e-05
-9.01521e-06
2.1544e-05
-3.32313e-05
2.945e-05
-6.44683e-05
3.87468e-05
-0.000103166
4.89352e-05
-0.000149094
5.92433e-05
-0.000201192
6.86537e-05
-0.000257514
7.60214e-05
-0.000315349
8.02435e-05
-0.000371501
8.04302e-05
-0.000422634
7.6024e-05
-0.00046561
6.68516e-05
-0.000497749
5.3114e-05
-0.000516999
3.53421e-05
-0.000522019
1.43544e-05
-0.000512263
-8.69969e-06
-0.000487823
-3.26022e-05
-0.000449337
-5.61104e-05
-0.00039801
-7.78919e-05
-0.000335671
-9.65508e-05
-0.000264791
-0.00011071
-0.000188465
-0.000119125
-0.000110267
-0.00012085
-3.40769e-05
-0.000115436
3.603e-05
-0.000103098
9.63635e-05
-8.48946e-05
0.000144109
-6.26126e-05
0.000177344
-3.82951e-05
0.00019528
-1.4271e-05
0.000198512
7.16051e-06
0.000189136
2.41016e-05
0.000170304
3.55508e-05
0.000145605
4.14716e-05
0.000118449
4.2638e-05
9.16019e-05
4.03053e-05
6.69292e-05
3.58789e-05
4.54181e-05
3.05738e-05
2.74584e-05
2.51057e-05
1.33344e-05
1.94226e-05
3.75521e-06
1.26679e-05
4.2602e-06
5.98702e-06
-1.21666e-05
1.73368e-05
-2.52492e-05
2.88013e-05
-2.742e-05
3.68222e-05
-2.13956e-05
3.95377e-05
-1.10658e-05
3.6359e-05
3.12936e-07
2.72231e-05
1.11251e-05
1.19229e-05
2.14609e-05
-1.03064e-05
3.25264e-05
-4.07416e-05
4.56607e-05
-8.07424e-05
6.15447e-05
-0.000131232
7.99396e-05
-0.000192276
9.97903e-05
-0.000262769
0.000119429
-0.000340367
0.000136841
-0.000421712
0.000149999
-0.000502887
0.000157197
-0.000579941
0.000157297
-0.000649328
0.000149818
-0.000708187
0.000134882
-0.000754428
0.000113093
-0.000786698
8.5384e-05
-0.000804237
5.2882e-05
-0.000806693
1.68095e-05
-0.000793923
-2.14693e-05
-0.000765948
-6.05775e-05
-0.000723083
-9.89755e-05
-0.000666059
-0.000134915
-0.000596113
-0.000166497
-0.000515091
-0.000191732
-0.000425518
-0.000208698
-0.00033059
-0.000215777
-0.000234092
-0.000211934
-0.00014016
-0.00019703
-5.30244e-05
-0.00017203
2.33526e-05
-0.00013899
8.59993e-05
-0.000100942
0.000133124
-6.13956e-05
0.00016376
-2.34758e-05
0.000178052
9.81016e-06
0.000177536
3.60658e-05
0.000165018
5.39899e-05
0.000144045
6.36111e-05
0.000118299
6.60514e-05
9.10398e-05
6.31378e-05
6.4742e-05
5.68716e-05
4.1064e-05
4.87837e-05
2.1207e-05
3.92796e-05
6.60689e-06
2.7268e-05
1.08671e-05
6.50861e-06
-1.86753e-05
1.75971e-05
-3.63377e-05
2.69525e-05
-3.67755e-05
3.076e-05
-2.52032e-05
2.72135e-05
-7.51934e-06
1.56199e-05
1.19065e-05
-4.55625e-06
3.13012e-05
-3.43287e-05
5.12334e-05
-7.52204e-05
7.3418e-05
-0.000128708
9.91483e-05
-0.000195522
0.000128359
-0.000275083
0.0001595
-0.000365263
0.000189971
-0.000462578
0.000216743
-0.000562713
0.000236976
-0.000661219
0.000248505
-0.00075412
0.000250098
-0.00083828
0.000241457
-0.00091149
0.000223027
-0.000972337
0.00019573
-0.00102
0.00016075
-0.00105398
0.00011937
-0.00107395
7.28458e-05
-0.00107955
2.24163e-05
-0.00107042
-3.06052e-05
-0.00104624
-8.47504e-05
-0.00100688
-0.000138341
-0.000952379
-0.000189414
-0.000883164
-0.000235712
-0.000800172
-0.000274725
-0.00070503
-0.00030384
-0.000600228
-0.00032058
-0.000489185
-0.000322977
-0.000376177
-0.000310039
-0.000266036
-0.000282172
-0.000163614
-0.000241411
-7.323e-05
-0.000191326
1.84539e-06
-0.000136471
6.00387e-05
-8.16691e-05
0.000101047
-3.11977e-05
0.000125124
1.19883e-05
0.000133562
4.55518e-05
0.000128867
6.83064e-05
0.000114334
8.05837e-05
9.35479e-05
8.39242e-05
6.98695e-05
8.055e-05
4.61155e-05
7.25377e-05
2.46358e-05
6.07592e-05
7.92812e-06
4.39757e-05
1.87952e-05
6.20565e-06
-2.48809e-05
1.48969e-05
-4.5029e-05
1.92089e-05
-4.10875e-05
1.54807e-05
-2.1475e-05
2.16547e-06
5.79587e-06
-2.16208e-05
3.56927e-05
-5.70546e-05
6.6735e-05
-0.000105862
0.000100041
-0.000169668
0.000137224
-0.000249034
0.000178515
-0.000342778
0.000222103
-0.000447882
0.000264604
-0.000559965
0.000302054
-0.000674085
0.000330863
-0.000785566
0.000348457
-0.000890586
0.000353525
-0.000986416
0.000345929
-0.00107135
0.000326387
-0.00114441
0.000296091
-0.00120512
0.000256435
-0.00125323
0.000208867
-0.00128861
0.000154751
-0.0013111
9.53313e-05
-0.00132052
3.18399e-05
-0.00131664
-3.44924e-05
-0.00129907
-0.000102313
-0.00126734
-0.00017008
-0.00122086
-0.000235894
-0.00115911
-0.000297453
-0.00108182
-0.000352017
-0.000989213
-0.000396449
-0.000882394
-0.000427399
-0.000763663
-0.000441708
-0.000636717
-0.000436985
-0.000506619
-0.000412269
-0.000379401
-0.00036863
-0.000261263
-0.000309464
-0.000157504
-0.00024023
-7.16501e-05
-0.000167523
-5.13905e-06
-9.77088e-05
4.25711e-05
-3.57219e-05
7.27254e-05
1.53975e-05
8.69272e-05
5.41045e-05
8.77046e-05
7.98063e-05
7.82666e-05
9.33622e-05
6.21253e-05
9.66912e-05
4.27413e-05
9.19217e-05
2.34088e-05
8.00918e-05
7.60336e-06
5.97811e-05
2.63986e-05
4.89924e-06
-2.97802e-05
8.88337e-06
-4.90132e-05
5.29534e-06
-3.74995e-05
-8.91499e-06
-7.26473e-06
-3.5092e-05
3.19729e-05
-7.43984e-05
7.4999e-05
-0.000128552
0.000120889
-0.000199303
0.000170791
-0.000287207
0.000225128
-0.000390744
0.000282052
-0.000506268
0.000337626
-0.000628717
0.000387053
-0.000752643
0.00042598
-0.00087314
0.00045136
-0.000986402
0.000461719
-0.00108987
0.000456991
-0.00118206
0.000438119
-0.00126226
0.000406592
-0.00133027
0.000364102
-0.00138623
0.000312391
-0.00143047
0.000253104
-0.00146338
0.000187663
-0.00148537
0.000117325
-0.0014968
4.32636e-05
-0.00149775
-3.35345e-05
-0.00148798
-0.000112085
-0.00146686
-0.000191204
-0.00143336
-0.000269396
-0.00138609
-0.00034472
-0.00132348
-0.000414628
-0.00124408
-0.000475849
-0.001147
-0.000524474
-0.00103245
-0.000556256
-0.000902301
-0.000567138
-0.00076051
-0.00055406
-0.000613212
-0.000515928
-0.000468193
-0.000454484
-0.000333707
-0.000374715
-0.000216819
-0.000284411
-0.000121835
-0.000192693
-4.97098e-05
-0.000107847
1.19224e-06
-3.55045e-05
3.34731e-05
2.18237e-05
4.96841e-05
6.35952e-05
5.27844e-05
9.02619e-05
4.61883e-05
0.000103287
3.35985e-05
0.000104511
1.88759e-05
9.48143e-05
6.11478e-06
7.25421e-05
3.25133e-05
2.27613e-06
-3.20563e-05
-9.095e-07
-4.58276e-05
-1.49963e-05
-2.34128e-05
-4.21767e-05
1.99156e-05
-8.36337e-05
7.34299e-05
-0.000140802
0.000132167
-0.00021538
0.000195468
-0.00030805
0.000263461
-0.000417274
0.000334353
-0.000539111
0.000403888
-0.000668013
0.000466528
-0.000798046
0.000517086
-0.000923943
0.000551877
-0.00104168
0.000569098
-0.0011486
0.00056864
-0.00124323
0.00055162
-0.00132499
0.000519877
-0.00139395
0.000475547
-0.00145067
0.000420823
-0.00149608
0.000357807
-0.0015313
0.00028832
-0.00155746
0.000213822
-0.00157564
0.000135509
-0.00158669
5.4306e-05
-0.00159104
-2.91784e-05
-0.00158871
-0.000114416
-0.00157918
-0.000200731
-0.00156129
-0.00028729
-0.00153318
-0.000372829
-0.00149242
-0.000455391
-0.00143615
-0.000532123
-0.00136143
-0.000599188
-0.00126589
-0.000651797
-0.00114849
-0.000684544
-0.00101041
-0.000692131
-0.000855855
-0.000670487
-0.000692217
-0.000618122
-0.000529546
-0.000537386
-0.000378859
-0.000435098
-0.000249636
-0.000321916
-0.000147353
-0.00021013
-7.2468e-05
-0.00011039
-2.16762e-05
-2.89682e-05
9.34447e-06
3.25745e-05
2.44519e-05
7.51544e-05
2.74298e-05
0.000100309
2.22356e-05
0.000109706
1.30493e-05
0.000104001
4.21388e-06
8.13776e-05
3.67272e-05
-1.91479e-06
-3.01416e-05
-1.46469e-05
-3.30955e-05
-4.13126e-05
3.25291e-06
-8.32033e-05
6.18063e-05
-0.000141331
0.000131558
-0.000217094
0.00020793
-0.000311276
0.00028965
-0.000422596
0.000374781
-0.000547164
0.00045892
-0.000679175
0.0005359
-0.000812243
0.000599596
-0.000940606
0.000645449
-0.00105982
0.000671087
-0.00116691
0.000676192
-0.00126026
0.000661991
-0.00133934
0.000630693
-0.00140446
0.000584998
-0.00145663
0.000527718
-0.00149735
0.000461547
-0.0015284
0.000388853
-0.00155157
0.000311491
-0.00156858
0.000230831
-0.00158089
0.000147824
-0.00158959
6.30088e-05
-0.00159539
-2.33795e-05
-0.00159857
-0.000111234
-0.00159889
-0.000200419
-0.0015954
-0.000290771
-0.00158646
-0.000381776
-0.00156951
-0.000472339
-0.00154111
-0.000560527
-0.00149702
-0.000643273
-0.00143269
-0.000716125
-0.00134398
-0.000773253
-0.0012283
-0.000807819
-0.00108589
-0.000812892
-0.00092107
-0.000782943
-0.000742697
-0.000715759
-0.000563523
-0.000614273
-0.00039792
-0.000487519
-0.000258282
-0.000349769
-0.000151374
-0.000217298
-7.68383e-05
-0.000103504
-2.92094e-05
-1.50544e-05
-2.0587e-06
4.80037e-05
9.98426e-06
8.82664e-05
1.17368e-05
0.000107953
7.79479e-06
0.000107943
2.60197e-06
8.65704e-05
3.93292e-05
-7.7414e-06
-2.24002e-05
-3.18904e-05
-8.94654e-06
-7.24842e-05
4.38467e-05
-0.000129781
0.000119103
-0.000204604
0.00020638
-0.000297682
0.000301008
-0.000408126
0.000400093
-0.000532428
0.000499083
-0.000664816
0.000591309
-0.000798559
0.000669642
-0.000927344
0.00072838
-0.00104615
0.000764257
-0.00115156
0.000776498
-0.00124169
0.000766317
-0.00131597
0.000736274
-0.00137497
0.000689689
-0.0014201
0.000630133
-0.00145341
0.000561024
-0.00147722
0.000485355
-0.00149384
0.00040548
-0.00150541
0.000323054
-0.00151371
0.000239138
-0.00152018
0.000154292
-0.00152585
6.86729e-05
-0.00153145
-1.7781e-05
-0.0015374
-0.000105276
-0.00154376
-0.000194058
-0.00155014
-0.000284394
-0.00155554
-0.000376374
-0.00155811
-0.000469767
-0.00155489
-0.000563753
-0.00154163
-0.000656533
-0.00151286
-0.000744892
-0.00146231
-0.000823804
-0.00138386
-0.000886267
-0.00127308
-0.000923678
-0.00112904
-0.000926977
-0.000956117
-0.000888685
-0.000764817
-0.000805574
-0.000571028
-0.000681307
-0.00039297
-0.000527827
-0.000246178
-0.00036409
-0.000138388
-0.000211293
-6.76953e-05
-8.57475e-05
-2.58886e-05
6.19703e-06
-4.30548e-06
6.66833e-05
3.87439e-06
9.97731e-05
4.28443e-06
0.000107533
1.71539e-06
8.91394e-05
4.10446e-05
-1.49315e-05
-7.46866e-06
-5.16585e-05
2.77804e-05
-0.000106478
9.86665e-05
-0.000178717
0.000191342
-0.000268725
0.000296388
-0.000375962
0.000408246
-0.000497564
0.000521695
-0.000628134
0.000629652
-0.000760817
0.000723993
-0.000888796
0.000797621
-0.0010064
0.000845989
-0.00110965
0.000867502
-0.00119628
0.000863126
-0.00126564
0.000835677
-0.00131846
0.000789101
-0.00135658
0.000727808
-0.00138253
0.000656076
-0.00139912
0.000577622
-0.00140911
0.000495341
-0.00141486
0.000411225
-0.00141826
0.00032646
-0.00142075
0.000241628
-0.00142333
0.000156871
-0.00142671
7.20543e-05
-0.00143142
-1.3078e-05
-0.00143783
-9.88663e-05
-0.00144621
-0.000185678
-0.00145669
-0.000273907
-0.00146912
-0.000363949
-0.00148275
-0.000456137
-0.00149593
-0.00055057
-0.00150566
-0.000646802
-0.00150721
-0.000743348
-0.00149399
-0.000837022
-0.00145801
-0.000922251
-0.00139099
-0.000990697
-0.00128639
-0.00103158
-0.00114193
-0.00103314
-0.000962076
-0.000985428
-0.000759338
-0.000884046
-0.000553293
-0.000733872
-0.000366416
-0.000550967
-0.000217187
-0.000360523
-0.000113331
-0.000189603
-5.01803e-05
-5.69541e-05
-1.63321e-05
3.2835e-05
-1.28568e-06
8.47267e-05
2.75049e-06
0.000103496
1.64893e-06
9.02409e-05
4.26935e-05
-2.29864e-05
1.55178e-05
-7.2442e-05
7.72359e-05
-0.000140703
0.000166927
-0.000226256
0.000276895
-0.000328579
0.000398711
-0.000445547
0.000525214
-0.000572494
0.000648642
-0.000702786
0.000759944
-0.000829266
0.000850473
-0.000945626
0.000913981
-0.0010472
0.000947568
-0.00113126
0.000951555
-0.00119692
0.000928787
-0.001245
0.000883762
-0.00127767
0.000821763
-0.0012979
0.000748047
-0.00130902
0.000667196
-0.00131414
0.000582733
-0.00131582
0.000497021
-0.00131598
0.000411385
-0.0013159
0.000326382
-0.00131636
0.000242086
-0.00131779
0.000158303
-0.00132046
7.47248e-05
-0.00132457
-8.96711e-06
-0.00133036
-9.30778e-05
-0.00133814
-0.0001779
-0.00134831
-0.000263732
-0.0013613
-0.000350957
-0.00137738
-0.000440058
-0.00139636
-0.000531597
-0.00141708
-0.000626079
-0.00143683
-0.000723596
-0.00145068
-0.000823168
-0.00145114
-0.000921796
-0.00142844
-0.00101339
-0.00137199
-0.00108803
-0.00127289
-0.00113224
-0.00112747
-0.00113085
-0.000940588
-0.00107093
-0.000727432
-0.000947027
-0.000512002
-0.000766397
-0.00032127
-0.000551254
-0.00017584
-0.000335033
-8.16103e-05
-0.000151184
-2.96122e-05
-1.91631e-05
-5.39085e-06
6.05053e-05
2.49447e-06
9.5611e-05
2.18172e-06
9.05537e-05
4.48752e-05
-3.11643e-05
4.6682e-05
-9.24281e-05
0.0001385
-0.000172422
0.000246921
-0.000268676
0.000373149
-0.000379533
0.000509568
-0.00050131
0.00064699
-0.000628015
0.000775347
-0.000752472
0.000884401
-0.000867838
0.000965839
-0.000968727
0.00101487
-0.00105175
0.00103059
-0.00111565
0.00101545
-0.00116115
0.000974281
-0.00119057
0.00091319
-0.00120732
0.000838509
-0.00121513
0.000755858
-0.00121749
0.000669555
-0.00121719
0.000582431
-0.00121616
0.000495992
-0.00121554
0.000410767
-0.00121587
0.000326706
-0.00121727
0.000243493
-0.00121971
0.000160744
-0.0012231
7.8111e-05
-0.00122739
-4.67618e-06
-0.00123266
-8.7807e-05
-0.00123913
-0.000171429
-0.0012472
-0.000255662
-0.00125746
-0.000340701
-0.00127064
-0.000426876
-0.0012875
-0.000514741
-0.00130848
-0.000605101
-0.00133315
-0.000698923
-0.00135936
-0.00079696
-0.00138223
-0.000898926
-0.00139346
-0.00100216
-0.00138148
-0.00110001
-0.00133316
-0.00118056
-0.00123715
-0.00122686
-0.00108859
-0.00121949
-0.000893444
-0.00114217
-0.000670657
-0.000989184
-0.000449617
-0.000772295
-0.000261707
-0.000522942
-0.000127793
-0.000285099
-4.91509e-05
-9.78048e-05
-1.12727e-05
2.2627e-05
2.16006e-06
8.21782e-05
2.88149e-06
8.98322e-05
4.77567e-05
-3.859e-05
8.5272e-05
-0.000109888
0.000209798
-0.000199151
0.000336184
-0.000302838
0.000476835
-0.000418092
0.000624822
-0.000539958
0.000768856
-0.000661693
0.000897082
-0.000776183
0.00099889
-0.000877343
0.001067
-0.000961008
0.00109853
-0.00102529
0.00109487
-0.00107055
0.00106072
-0.0010991
0.00100283
-0.00111455
0.000928637
-0.00112102
0.000844976
-0.00112236
0.000757199
-0.00112161
0.00066881
-0.00112079
0.000581609
-0.00112094
0.000496145
-0.00112241
0.000412238
-0.00112512
0.000329412
-0.00112879
0.000247163
-0.00113313
0.000165081
-0.0011379
8.28826e-05
-0.00114297
3.96052e-07
-0.00114832
-8.24565e-05
-0.00115405
-0.000165701
-0.00116039
-0.000249318
-0.00116778
-0.000333317
-0.00117687
-0.000417788
-0.0011886
-0.000503007
-0.00120414
-0.00058956
-0.00122459
-0.000678476
-0.00125033
-0.000771218
-0.00127994
-0.000869316
-0.00130876
-0.000973344
-0.00132771
-0.00108106
-0.00132327
-0.001185
-0.00127957
-0.00127056
-0.00118283
-0.00131623
-0.00102755
-0.00129745
-0.000822164
-0.00119457
-0.000591054
-0.0010034
-0.000369986
-0.000744011
-0.000193734
-0.00046135
-7.99909e-05
-0.000211548
-2.19465e-05
-3.54174e-05
2.49125e-07
5.99826e-05
3.27359e-06
8.68077e-05
5.10303e-05
-4.4496e-05
0.000129768
-0.000123393
0.000288695
-0.000218972
0.000431764
-0.00032656
0.000584423
-0.000442218
0.00074048
-0.000560136
0.000886774
-0.000673364
0.00101031
-0.00077531
0.00110084
-0.000860965
0.00115265
-0.000927585
0.00116516
-0.000974884
0.00114217
-0.00100481
0.00109065
-0.00102097
0.00101899
-0.00102772
0.000935391
-0.00102928
0.000846536
-0.00102899
0.000756909
-0.00102902
0.000668833
-0.0010304
0.000582994
-0.00103338
0.00049912
-0.00103771
0.000416567
-0.00104298
0.000334683
-0.00104879
0.000252973
-0.00105483
0.000171122
-0.0010609
8.89554e-05
-0.0010669
6.39664e-06
-0.0010728
-7.65618e-05
-0.00107861
-0.000159887
-0.00108442
-0.000243512
-0.00109038
-0.000327352
-0.00109684
-0.000411331
-0.00110441
-0.00049544
-0.0011141
-0.000579866
-0.00112738
-0.000665198
-0.00114593
-0.000752661
-0.001171
-0.000844249
-0.00120197
-0.000942377
-0.00123443
-0.00104859
-0.00125842
-0.00116102
-0.0012581
-0.00127087
-0.00121459
-0.00135975
-0.00111199
-0.00140004
-0.000945504
-0.00136106
-0.00072811
-0.0012208
-0.000491756
-0.000980365
-0.000279071
-0.000674035
-0.000125359
-0.00036526
-3.96774e-05
-0.000121099
-4.39093e-06
2.4696e-05
3.03223e-06
7.93845e-05
5.40625e-05
-4.83114e-05
0.000178079
-0.000131956
0.000372339
-0.000230705
0.000530512
-0.000338754
0.000692472
-0.000451325
0.00085305
-0.00056219
0.000997639
-0.000664643
0.00111276
-0.000752941
0.00118913
-0.000823341
0.00122305
-0.000874598
0.00121641
-0.000907953
0.00117553
-0.000926661
0.00110936
-0.000935123
0.00102745
-0.000937832
0.000938101
-0.000938489
0.000847193
-0.000939525
0.000757945
-0.000942096
0.000671404
-0.000946403
0.000587301
-0.000952115
0.000504832
-0.000958724
0.000423176
-0.000965769
0.000341728
-0.000972923
0.000260128
-0.000980001
0.000178199
-0.000986918
9.58723e-05
-0.000993653
1.31324e-05
-0.00100021
-7.00043e-05
-0.00100659
-0.000153504
-0.00101279
-0.000237317
-0.00101878
-0.000321358
-0.00102461
-0.000405502
-0.00103045
-0.000489601
-0.00103677
-0.000573543
-0.00104456
-0.000657406
-0.00105548
-0.000741743
-0.00107176
-0.000827968
-0.00109549
-0.000918648
-0.00112687
-0.00101722
-0.00116157
-0.00112631
-0.00118827
-0.00124418
-0.00118831
-0.00135971
-0.00113963
-0.00144872
-0.00102505
-0.00147564
-0.00084262
-0.00140322
-0.000612993
-0.00120999
-0.00037792
-0.000909108
-0.000185673
-0.000557508
-6.59166e-05
-0.000240855
-1.23352e-05
-2.88855e-05
2.04176e-06
6.50075e-05
5.61043e-05
-4.97066e-05
0.000227786
-0.000135089
0.000457721
-0.000233923
0.000629347
-0.000339352
0.0007979
-0.000446039
0.000959737
-0.000547741
0.00109934
-0.000638325
0.00120335
-0.000713095
0.0012639
-0.00076964
0.0012796
-0.000808133
0.00125491
-0.000831089
0.00119848
-0.000842615
0.00112088
-0.000847331
0.00103217
-0.000849301
0.000940071
-0.000851342
0.000849234
-0.000854865
0.000761468
-0.000860161
0.0006767
-0.000866871
0.000594012
-0.000874425
0.000512386
-0.000882312
0.000431062
-0.000890194
0.00034961
-0.000897905
0.000267839
-0.000905406
0.0001857
-0.000912723
0.00010319
-0.000919908
2.03173e-05
-0.000927004
-6.29087e-05
-0.000934023
-0.000146485
-0.000940941
-0.000230399
-0.000947685
-0.000314614
-0.000954143
-0.000399045
-0.000960202
-0.000483542
-0.000965855
-0.000567891
-0.000971392
-0.000651869
-0.000977711
-0.000735425
-0.000986626
-0.000819053
-0.0010009
-0.000904376
-0.00102344
-0.000994678
-0.00105512
-0.00109463
-0.00109129
-0.00120801
-0.00111851
-0.00133249
-0.0011145
-0.00145273
-0.00105408
-0.00153606
-0.000920595
-0.00153671
-0.00071859
-0.001412
-0.000480242
-0.00114746
-0.000258236
-0.000779515
-0.000101485
-0.000397606
-2.37469e-05
-0.000106623
3.08995e-07
4.09515e-05
5.64133e-05
-4.85948e-05
0.000276381
-0.00013276
0.000541886
-0.000228864
0.00072545
-0.000329099
0.000898136
-0.000427861
0.0010585
-0.000519204
0.00119068
-0.000597788
0.00128193
-0.000660035
0.00132615
-0.000704801
0.00132436
-0.000733458
0.00128356
-0.000749402
0.00121443
-0.00075708
0.00112856
-0.000760822
0.00103591
-0.000763904
0.000943153
-0.000768154
0.000853485
-0.000774105
0.000767418
-0.000781469
0.000684065
-0.00078965
0.000602193
-0.00079809
0.000520826
-0.000806426
0.000439398
-0.000814499
0.000357682
-0.000822295
0.000275636
-0.000829881
0.000193286
-0.000837348
0.000110657
-0.000844779
2.77493e-05
-0.00085224
-5.5448e-05
-0.000859758
-0.000138967
-0.000867325
-0.000222832
-0.000874884
-0.000307055
-0.00088231
-0.000391619
-0.000889407
-0.000476444
-0.000895934
-0.000561364
-0.000901706
-0.000646098
-0.000906829
-0.000730301
-0.00091211
-0.000813772
-0.000919522
-0.000896964
-0.000932378
-0.000981822
-0.000954414
-0.0010726
-0.000986927
-0.0011755
-0.00102412
-0.00129529
-0.00104916
-0.00142769
-0.0010353
-0.00154992
-0.000955165
-0.00161684
-0.000796121
-0.00157104
-0.000574309
-0.00136927
-0.000337213
-0.00101661
-0.000146116
-0.000588703
-3.90025e-05
-0.000213737
-2.30593e-06
4.25486e-06
5.41073e-05
-4.50953e-05
0.000321476
-0.000125313
0.000622104
-0.000216255
0.000816393
-0.000309295
0.000991176
-0.000398796
0.001148
-0.000479341
0.00127123
-0.000546483
0.00134907
-0.000597734
0.0013774
-0.000633035
0.00135967
-0.000654632
0.00130516
-0.000666365
0.00122616
-0.000672561
0.00113476
-0.000676913
0.00104026
-0.000681787
0.000948027
-0.000688133
0.000859831
-0.000695875
0.00077516
-0.000704454
0.000692644
-0.000713275
0.000611014
-0.000721933
0.000529483
-0.000730252
0.000447717
-0.000738227
0.000365658
-0.000745946
0.000283354
-0.000753523
0.000200863
-0.000761067
0.000118201
-0.000768666
3.53475e-05
-0.00077638
-4.77331e-05
-0.000784246
-0.000131101
-0.000792273
-0.000214805
-0.000800435
-0.000298893
-0.000808654
-0.0003834
-0.000816773
-0.000468326
-0.000824535
-0.000553602
-0.000831593
-0.00063904
-0.000837605
-0.000724289
-0.000842511
-0.000808866
-0.000847059
-0.000892416
-0.000853476
-0.000975405
-0.000865752
-0.00106032
-0.000888403
-0.00115285
-0.000922566
-0.00126113
-0.000959952
-0.00139031
-0.000978686
-0.00153119
-0.000947149
-0.00164838
-0.00083837
-0.00167982
-0.00064951
-0.00155813
-0.000414628
-0.00125149
-0.000197767
-0.000805565
-5.87626e-05
-0.000352741
-5.87518e-06
-4.86327e-05
4.82321e-05
-3.94807e-05
0.000360956
-0.000113345
0.000695969
-0.00019714
0.000900187
-0.000281533
0.00107557
-0.000361035
0.0012275
-0.000430894
0.00134109
-0.000487575
0.00140576
-0.000529552
0.00141938
-0.000557594
0.00138771
-0.000574458
0.00132202
-0.000584021
0.00123572
-0.000590154
0.00114089
-0.000595762
0.00104587
-0.000602365
0.00095463
-0.000610264
0.000867731
-0.000619054
0.00078395
-0.000628139
0.000701728
-0.000637059
0.000619934
-0.000645594
0.000538019
-0.000653728
0.000455851
-0.000661554
0.000373483
-0.000669202
0.000291002
-0.000676795
0.000208456
-0.000684434
0.00012584
-0.000692191
4.31044e-05
-0.000700119
-3.98049e-05
-0.000708249
-0.000122971
-0.000716598
-0.000206456
-0.000725163
-0.000290328
-0.000733908
-0.000374654
-0.000742745
-0.000459489
-0.000751496
-0.000544851
-0.000759859
-0.000630677
-0.000767393
-0.000716754
-0.000773619
-0.00080264
-0.000778349
-0.000887685
-0.000782374
-0.00097138
-0.000788342
-0.00105435
-0.000801089
-0.0011401
-0.000825767
-0.00123645
-0.000862314
-0.00135376
-0.000897833
-0.00149567
-0.00090357
-0.00164264
-0.00084413
-0.00173926
-0.000698588
-0.00170367
-0.00048225
-0.00146783
-0.000252349
-0.00103547
-8.31737e-05
-0.000521916
-1.03788e-05
-0.000121428
3.78533e-05
-3.21227e-05
0.000393079
-9.76058e-05
0.000761452
-0.000172702
0.000975283
-0.000247479
0.00115035
-0.000316702
0.00129672
-0.000376346
0.00140073
-0.000423728
0.00145314
-0.0004581
0.00145375
-0.00048077
0.00141038
-0.000494654
0.00133591
-0.000503351
0.00124442
-0.000510092
0.00114763
-0.000516995
0.00105277
-0.000524907
0.000962542
-0.000533731
0.000876554
-0.000542956
0.000793175
-0.000552082
0.000710855
-0.000560824
0.000628677
-0.000569122
0.000546317
-0.00057706
0.000463788
-0.000584775
0.000381199
-0.000592404
0.000298631
-0.000600056
0.000216109
-0.000607816
0.0001336
-0.000615741
5.10298e-05
-0.000623876
-3.16696e-05
-0.000632245
-0.000114602
-0.000640862
-0.000197839
-0.000649733
-0.000281457
-0.000658844
-0.000365543
-0.000668153
-0.00045018
-0.000677564
-0.00053544
-0.000686881
-0.00062136
-0.000695756
-0.000707879
-0.000703661
-0.000794734
-0.000709996
-0.00088135
-0.000714507
-0.00096687
-0.000718178
-0.00105068
-0.000724379
-0.0011339
-0.000739012
-0.00122182
-0.000767353
-0.00132542
-0.000806146
-0.00145688
-0.000834998
-0.00161379
-0.000817412
-0.00175685
-0.000718652
-0.00180243
-0.000533461
-0.00165302
-0.000304576
-0.00126435
-0.000111224
-0.000715269
-1.58198e-05
-0.000216832
2.20335e-05
-2.34452e-05
0.000416524
-7.88993e-05
0.000816906
-0.000144141
0.00104052
-0.000208723
0.00121493
-0.000267705
0.00135571
-0.000317785
0.00145081
-0.000357029
0.00149238
-0.000385254
0.00148197
-0.000404024
0.00142915
-0.000416125
0.00134801
-0.000424664
0.00125296
-0.000432175
0.00115514
-0.000440098
0.00106069
-0.000448808
0.000971251
-0.000458019
0.000885765
-0.000467256
0.000802412
-0.000476167
0.000719766
-0.000484623
0.000637133
-0.000492672
0.000554366
-0.000500446
0.000471563
-0.000508092
0.000388845
-0.000515731
0.00030627
-0.000523456
0.000223834
-0.000531339
0.000141483
-0.000539431
5.91218e-05
-0.000547772
-2.33286e-05
-0.000556379
-0.000105995
-0.000565262
-0.000188955
-0.000574426
-0.000272294
-0.000583861
-0.000356108
-0.000593545
-0.000440495
-0.000603429
-0.000525556
-0.000613405
-0.000611384
-0.000623252
-0.000698031
-0.000632569
-0.000785418
-0.000640729
-0.00087319
-0.000647027
-0.000960572
-0.000651248
-0.00104646
-0.000654858
-0.00113029
-0.000662346
-0.00121433
-0.000680738
-0.00130703
-0.000714091
-0.00142353
-0.000752681
-0.0015752
-0.000765644
-0.00174388
-0.000710959
-0.00185712
-0.000564417
-0.00179956
-0.00034941
-0.00147936
-0.000140918
-0.000923761
-2.20962e-05
-0.000335654
-6.26858e-08
-1.38891e-05
0.000430413
-5.80242e-05
0.000861041
-0.000112582
0.00109508
-0.00016668
0.00126903
-0.000215646
0.00140467
-0.000256859
0.00149202
-0.000289003
0.00152453
-0.000312253
0.00150522
-0.000328181
0.00144508
-0.000339226
0.00135905
-0.000347895
0.00126163
-0.000356054
0.0011633
-0.00036461
0.00106925
-0.000373653
0.000980294
-0.000382853
0.000894966
-0.000391841
0.0008114
-0.000400412
0.000728337
-0.000408549
0.000645271
-0.00041636
0.000562177
-0.000423991
0.000479193
-0.000431575
0.000396429
-0.000439218
0.000313913
-0.000446999
0.000231616
-0.000454984
0.000149468
-0.000463225
6.73627e-05
-0.000471763
-1.47903e-05
-0.000480612
-9.71456e-05
-0.000489779
-0.000179787
-0.00049926
-0.000262812
-0.000509044
-0.000346324
-0.000519112
-0.000430427
-0.000529432
-0.000515236
-0.000539943
-0.000600873
-0.00055052
-0.000687455
-0.000560901
-0.000775037
-0.000570606
-0.000863485
-0.0005789
-0.000952277
-0.000585016
-0.00104035
-0.000588966
-0.00112634
-0.000593124
-0.00121017
-0.00060357
-0.00129658
-0.000627972
-0.00139912
-0.000666246
-0.00153692
-0.000697581
-0.00171255
-0.000679865
-0.00187483
-0.000574292
-0.00190514
-0.000383137
-0.00167051
-0.000169679
-0.00113722
-2.94189e-05
-0.000475914
-2.94816e-05
-3.87431e-06
0.000434288
-3.57449e-05
0.000892911
-7.90343e-05
0.00113837
-0.00012255
0.00131254
-0.000161815
0.00144394
-0.000194805
0.00152502
-0.000220697
0.00155042
-0.000239839
0.00152437
-0.000253619
0.00145886
-0.000263987
0.00136942
-0.000272813
0.00127046
-0.000281373
0.00117186
-0.000290183
0.00107806
-0.000299189
0.000989301
-0.000308108
0.000903884
-0.000316693
0.000819985
-0.000324859
0.000736503
-0.000332662
0.000653074
-0.000340233
0.000569748
-0.000347709
0.00048667
-0.000355209
0.000403929
-0.000362823
0.000321528
-0.000370623
0.000239415
-0.000378672
0.000157517
-0.000387033
7.57235e-05
-0.000395751
-6.07196e-06
-0.000404842
-8.8054e-05
-0.00041431
-0.000170319
-0.000424143
-0.000252979
-0.000434324
-0.000336143
-0.00044483
-0.000419922
-0.000455631
-0.000504434
-0.000466687
-0.000589817
-0.000477921
-0.000676221
-0.000489172
-0.000763786
-0.000500116
-0.000852541
-0.000510168
-0.000942225
-0.000518478
-0.00103204
-0.000524309
-0.00112051
-0.000528251
-0.00120623
-0.000534221
-0.00129061
-0.000550158
-0.00138319
-0.000582414
-0.00150467
-0.00062149
-0.00167347
-0.000631405
-0.00186492
-0.000564807
-0.00197173
-0.000403869
-0.00183145
-0.000195062
-0.00134602
-3.78509e-05
-0.000633126
-6.73325e-05
6.06188e-06
0.000428226
-1.27302e-05
0.000911703
-4.43887e-05
0.00117003
-7.73264e-05
0.00134548
-0.000107208
0.00147382
-0.000132509
0.00155032
-0.000152777
0.00157069
-0.000168395
0.00153998
-0.00018043
0.00147089
-0.000190264
0.00137925
-0.000199139
0.00127933
-0.000207826
0.00118055
-0.000216571
0.0010868
-0.00022527
0.000998001
-0.000233725
0.000912339
-0.000241809
0.00082807
-0.000249526
0.000744219
-0.00025697
0.000660518
-0.000264272
0.000577051
-0.000271559
0.000493956
-0.000278931
0.000411301
-0.000286471
0.000329068
-0.000294244
0.000247189
-0.000302316
0.000165589
-0.000310761
8.41686e-05
-0.000319634
2.80146e-06
-0.000328961
-7.87265e-05
-0.000338742
-0.000160538
-0.000348957
-0.000242764
-0.000359582
-0.000325518
-0.000370589
-0.000408915
-0.000381947
-0.000493076
-0.00039362
-0.000578143
-0.000405554
-0.000664288
-0.000417642
-0.000751697
-0.000429671
-0.000840512
-0.000441219
-0.000930677
-0.000451572
-0.00102168
-0.000459792
-0.00111229
-0.000465402
-0.00120062
-0.000470162
-0.00128585
-0.000480272
-0.00137308
-0.000504794
-0.00148015
-0.000543967
-0.0016343
-0.000571955
-0.00183693
-0.000539375
-0.00200431
-0.000411501
-0.00195932
-0.000215304
-0.00154222
-4.69679e-05
-0.000801462
-0.0001143
1.53111e-05
0.000412914