/*--------------------------------*- C++ -*----------------------------------*\
  =========                 |
  \\      /  F ield         | OpenFOAM: The Open Source CFD Toolbox
   \\    /   O peration     | Website:  https://openfoam.org
    \\  /    A nd           | Version:  7
     \\/     M anipulation  |
\*---------------------------------------------------------------------------*/
FoamFile
{
    version     2.0;
    format      ascii;
    class       volVectorField;
    location    "1550";
    object      U;
}
// * * * * * * * * * * * * * * * * * * * * * * * * * * * * * * * * * * * * * //

dimensions      [0 1 -1 0 0 0 0];

internalField   nonuniform List<vector> 
2500
(
(0.000207226 -0.000201463 0)
(0.0018657 -0.000571256 0)
(0.00447409 -0.000697856 0)
(0.00716316 -0.000600115 0)
(0.00922931 -0.000418998 0)
(0.0104507 -0.000264329 0)
(0.0109305 -0.000187993 0)
(0.0108814 -0.000185863 0)
(0.010451 -0.000219851 0)
(0.00963458 -0.00024542 0)
(0.00828309 -0.000228679 0)
(0.00616419 -0.000150776 0)
(0.00302059 -2.66737e-06 0)
(-0.00139141 0.000221027 0)
(-0.00727644 0.000523453 0)
(-0.014767 0.000908138 0)
(-0.0238855 0.00137508 0)
(-0.034502 0.00191266 0)
(-0.0462985 0.00248768 0)
(-0.0587491 0.00303781 0)
(-0.0711253 0.00347326 0)
(-0.0825336 0.00368952 0)
(-0.0919849 0.00358817 0)
(-0.0984966 0.00310398 0)
(-0.101203 0.0022312 0)
(-0.0994319 0.00102796 0)
(-0.0929137 -0.000374889 0)
(-0.0817223 -0.0018118 0)
(-0.0663254 -0.00310924 0)
(-0.0475801 -0.0041003 0)
(-0.0267052 -0.00464002 0)
(-0.00518295 -0.00460571 0)
(0.0154608 -0.00393534 0)
(0.0337564 -0.00278401 0)
(0.0483966 -0.00137101 0)
(0.0584261 0.000125972 0)
(0.0634649 0.00149712 0)
(0.0637259 0.00253439 0)
(0.0600153 0.00311194 0)
(0.0534989 0.00322485 0)
(0.0454083 0.00298642 0)
(0.0368468 0.00254956 0)
(0.0286513 0.00204866 0)
(0.0213418 0.00157432 0)
(0.0151476 0.00117421 0)
(0.0100799 0.000863404 0)
(0.00602902 0.000631231 0)
(0.00290113 0.000436017 0)
(0.000795329 0.000192786 0)
(-8.2025e-05 -8.74256e-05 0)
(0.000566143 -0.00181891 0)
(0.00437435 -0.00431697 0)
(0.00958183 -0.0051171 0)
(0.0146038 -0.00444081 0)
(0.0181616 -0.00299837 0)
(0.0197685 -0.00145778 0)
(0.0194631 -0.000192406 0)
(0.0174566 0.00076569 0)
(0.0138343 0.00162531 0)
(0.00840723 0.00266519 0)
(0.000738683 0.00410262 0)
(-0.00972754 0.00604352 0)
(-0.0235205 0.00849209 0)
(-0.0410027 0.0113813 0)
(-0.0622542 0.0145727 0)
(-0.0869678 0.0178406 0)
(-0.114386 0.0208646 0)
(-0.143314 0.0232525 0)
(-0.172229 0.0245957 0)
(-0.199452 0.0245367 0)
(-0.223327 0.0228285 0)
(-0.242372 0.0193718 0)
(-0.255388 0.0142308 0)
(-0.26152 0.00763781 0)
(-0.260294 -1.73079e-05 0)
(-0.25164 -0.00821824 0)
(-0.235753 -0.0163945 0)
(-0.213082 -0.0239921 0)
(-0.184395 -0.0304484 0)
(-0.150778 -0.0352295 0)
(-0.113641 -0.037873 0)
(-0.0746841 -0.0380352 0)
(-0.0358159 -0.0355719 0)
(0.00102975 -0.0306661 0)
(0.0340073 -0.0238165 0)
(0.06144 -0.015749 0)
(0.0820108 -0.00728462 0)
(0.0949986 0.000693929 0)
(0.100269 0.0073434 0)
(0.0984353 0.0120817 0)
(0.090954 0.0147114 0)
(0.0796106 0.0154344 0)
(0.0662313 0.0147152 0)
(0.052414 0.0131076 0)
(0.0393367 0.0111171 0)
(0.0276936 0.00911031 0)
(0.0177733 0.00724877 0)
(0.00968216 0.00543462 0)
(0.00372619 0.00334318 0)
(0.000329288 0.000918452 0)
(0.000785746 -0.00449563 0)
(0.0056885 -0.00969539 0)
(0.011718 -0.0109175 0)
(0.0169069 -0.00900594 0)
(0.0197644 -0.00542407 0)
(0.0197135 -0.00146972 0)
(0.0166719 0.00215272 0)
(0.0106374 0.00542324 0)
(0.00138481 0.00878094 0)
(-0.0116175 0.0127922 0)
(-0.0290826 0.0178431 0)
(-0.051638 0.0240108 0)
(-0.0795893 0.0310837 0)
(-0.112707 0.0385984 0)
(-0.150117 0.0458747 0)
(-0.190344 0.0520937 0)
(-0.2315 0.0564317 0)
(-0.271549 0.0582028 0)
(-0.308568 0.056961 0)
(-0.340931 0.0525399 0)
(-0.3674 0.045038 0)
(-0.387129 0.0347712 0)
(-0.399606 0.0222134 0)
(-0.404574 0.00794501 0)
(-0.401953 -0.00738606 0)
(-0.391719 -0.0230974 0)
(-0.373911 -0.0384752 0)
(-0.348801 -0.0527312 0)
(-0.316871 -0.0650321 0)
(-0.278888 -0.074539 0)
(-0.235945 -0.0804769 0)
(-0.189479 -0.0822365 0)
(-0.141247 -0.0794882 0)
(-0.0932559 -0.0722872 0)
(-0.0476168 -0.0611813 0)
(-0.00632374 -0.0471764 0)
(0.0289002 -0.0315639 0)
(0.0566968 -0.015791 0)
(0.0763747 -0.00114771 0)
(0.0876605 0.0111695 0)
(0.0908171 0.0202529 0)
(0.0870981 0.0257391 0)
(0.078209 0.0278605 0)
(0.0660395 0.0273066 0)
(0.05239 0.0249762 0)
(0.0387214 0.0217246 0)
(0.0260339 0.0181222 0)
(0.0149679 0.0142392 0)
(0.00625646 0.00958301 0)
(0.00070521 0.00358669 0)
(0.000917703 -0.00772718 0)
(0.0060685 -0.0155929 0)
(0.0115466 -0.0165384 0)
(0.0151644 -0.0124521 0)
(0.0154188 -0.00573387 0)
(0.0117509 0.00169949 0)
(0.00393627 0.00894246 0)
(-0.00837386 0.0161035 0)
(-0.0258446 0.0239453 0)
(-0.0492914 0.033219 0)
(-0.0793517 0.0442046 0)
(-0.116123 0.0565613 0)
(-0.158938 0.0694131 0)
(-0.206343 0.0815376 0)
(-0.2563 0.0916063 0)
(-0.306526 0.0984328 0)
(-0.354845 0.101168 0)
(-0.399449 0.0993931 0)
(-0.439009 0.0930944 0)
(-0.472644 0.0825705 0)
(-0.499827 0.0683196 0)
(-0.520263 0.0509451 0)
(-0.533761 0.031079 0)
(-0.540153 0.00935014 0)
(-0.539275 -0.0135827 0)
(-0.530948 -0.0369809 0)
(-0.515047 -0.0599949 0)
(-0.491541 -0.0816667 0)
(-0.460534 -0.100932 0)
(-0.422348 -0.116643 0)
(-0.377607 -0.127665 0)
(-0.327321 -0.133 0)
(-0.272963 -0.131952 0)
(-0.21647 -0.124317 0)
(-0.160158 -0.110528 0)
(-0.106506 -0.0916972 0)
(-0.0578631 -0.0695241 0)
(-0.0161002 -0.0460112 0)
(0.017589 -0.0230733 0)
(0.042615 -0.00245295 0)
(0.0589154 0.0146134 0)
(0.0667501 0.0272022 0)
(0.0672308 0.0349386 0)
(0.061913 0.0381645 0)
(0.0525863 0.037784 0)
(0.0410422 0.0349326 0)
(0.0288317 0.0305679 0)
(0.0171898 0.0250317 0)
(0.00742135 0.01774 0)
(0.000862113 0.00736588 0)
(0.000999791 -0.0110184 0)
(0.00561113 -0.0208284 0)
(0.00922951 -0.0203491 0)
(0.00967884 -0.0129026 0)
(0.0056209 -0.00193643 0)
(-0.00346307 0.0101264 0)
(-0.0180376 0.0223852 0)
(-0.0388583 0.0352834 0)
(-0.0668588 0.0497609 0)
(-0.102691 0.0663436 0)
(-0.146254 0.084659 0)
(-0.196473 0.103476 0)
(-0.251408 0.121065 0)
(-0.308612 0.135632 0)
(-0.365581 0.145691 0)
(-0.420133 0.150289 0)
(-0.470624 0.14906 0)
(-0.515972 0.142132 0)
(-0.555547 0.129958 0)
(-0.589016 0.11315 0)
(-0.616225 0.0923845 0)
(-0.637099 0.0683348 0)
(-0.651566 0.0416251 0)
(-0.659534 0.0128705 0)
(-0.660912 -0.0172608 0)
(-0.655576 -0.0480307 0)
(-0.6433 -0.0785947 0)
(-0.623803 -0.107949 0)
(-0.596802 -0.134902 0)
(-0.562068 -0.158095 0)
(-0.519546 -0.176059 0)
(-0.46953 -0.187329 0)
(-0.412834 -0.190647 0)
(-0.350935 -0.185242 0)
(-0.286037 -0.171097 0)
(-0.220977 -0.149143 0)
(-0.158923 -0.121269 0)
(-0.102875 -0.0900811 0)
(-0.0551214 -0.0584317 0)
(-0.0168506 -0.0288383 0)
(0.0118122 -0.00307621 0)
(0.0312469 0.0176528 0)
(0.0420069 0.032679 0)
(0.0452965 0.0418481 0)
(0.0426353 0.0456989 0)
(0.0357496 0.0452998 0)
(0.0264024 0.0417602 0)
(0.0162521 0.0356003 0)
(0.00711037 0.0261577 0)
(0.00079655 0.0113831 0)
(0.000995797 -0.0139235 0)
(0.00416224 -0.0242956 0)
(0.00458192 -0.0208797 0)
(0.000397186 -0.00872758 0)
(-0.00946499 0.00765879 0)
(-0.025567 0.0255975 0)
(-0.0486519 0.0444868 0)
(-0.0797001 0.0649998 0)
(-0.119426 0.0877934 0)
(-0.167646 0.112554 0)
(-0.223016 0.137828 0)
(-0.283234 0.161461 0)
(-0.345532 0.181232 0)
(-0.407219 0.195366 0)
(-0.466072 0.20279 0)
(-0.520505 0.203156 0)
(-0.569547 0.196693 0)
(-0.612692 0.183982 0)
(-0.649737 0.165755 0)
(-0.680683 0.142794 0)
(-0.705668 0.115872 0)
(-0.724889 0.0856863 0)
(-0.738547 0.0528606 0)
(-0.746846 0.0180171 0)
(-0.749911 -0.0182312 0)
(-0.747731 -0.0552859 0)
(-0.740095 -0.0924531 0)
(-0.72658 -0.128838 0)
(-0.706574 -0.163326 0)
(-0.679304 -0.194539 0)
(-0.643972 -0.220813 0)
(-0.599938 -0.240271 0)
(-0.546958 -0.251027 0)
(-0.485477 -0.251483 0)
(-0.416911 -0.240717 0)
(-0.343799 -0.218882 0)
(-0.269712 -0.187493 0)
(-0.19884 -0.149406 0)
(-0.135235 -0.10839 0)
(-0.081899 -0.0683223 0)
(-0.0401214 -0.032324 0)
(-0.00952706 -0.00225784 0)
(0.0110515 0.0211445 0)
(0.022805 0.037602 0)
(0.0271619 0.0473304 0)
(0.0257858 0.0511118 0)
(0.020467 0.0499403 0)
(0.0130792 0.0443208 0)
(0.00574979 0.0334781 0)
(0.000591081 0.0148944 0)
(0.000839982 -0.0158652 0)
(0.00148466 -0.0247717 0)
(-0.0025942 -0.0166964 0)
(-0.0126841 0.00144817 0)
(-0.0295695 0.0244029 0)
(-0.0539248 0.0495705 0)
(-0.0866496 0.0766423 0)
(-0.128504 0.106082 0)
(-0.179361 0.137643 0)
(-0.237795 0.169777 0)
(-0.301278 0.200007 0)
(-0.366778 0.225696 0)
(-0.431381 0.244732 0)
(-0.492723 0.255852 0)
(-0.549146 0.258661 0)
(-0.599653 0.253441 0)
(-0.643772 0.240901 0)
(-0.681399 0.221947 0)
(-0.712708 0.197544 0)
(-0.738096 0.168653 0)
(-0.758098 0.13615 0)
(-0.773285 0.100765 0)
(-0.78423 0.0631279 0)
(-0.791438 0.0237909 0)
(-0.795228 -0.0168131 0)
(-0.795729 -0.0583003 0)
(-0.79286 -0.100219 0)
(-0.786186 -0.141963 0)
(-0.774949 -0.182703 0)
(-0.758063 -0.221261 0)
(-0.734179 -0.256025 0)
(-0.701792 -0.284963 0)
(-0.659484 -0.305722 0)
(-0.606289 -0.315856 0)
(-0.542139 -0.313255 0)
(-0.468297 -0.296698 0)
(-0.387665 -0.266441 0)
(-0.304738 -0.224629 0)
(-0.225049 -0.175279 0)
(-0.154068 -0.123626 0)
(-0.095796 -0.0748607 0)
(-0.0516931 -0.0327766 0)
(-0.0207441 0.000872967 0)
(-0.000740849 0.0259517 0)
(0.010312 0.0427917 0)
(0.0143169 0.052015 0)
(0.0132098 0.0544186 0)
(0.00901448 0.0503555 0)
(0.00400135 0.0389283 0)
(0.000362304 0.0174929 0)
(0.000465235 -0.0160985 0)
(-0.00257224 -0.0209763 0)
(-0.0122826 -0.00662118 0)
(-0.0292303 0.018655 0)
(-0.0539459 0.049268 0)
(-0.0871808 0.0828733 0)
(-0.12966 0.119118 0)
(-0.18139 0.157658 0)
(-0.241049 0.196938 0)
(-0.306051 0.234251 0)
(-0.373158 0.266547 0)
(-0.439202 0.291286 0)
(-0.501579 0.306907 0)
(-0.558445 0.312874 0)
(-0.608685 0.309472 0)
(-0.651791 0.297538 0)
(-0.687742 0.278202 0)
(-0.716889 0.252699 0)
(-0.739885 0.222262 0)
(-0.757585 0.188032 0)
(-0.770904 0.150951 0)
(-0.780733 0.111749 0)
(-0.787891 0.0709858 0)
(-0.79302 0.0290314 0)
(-0.796557 -0.0138968 0)
(-0.79877 -0.0576292 0)
(-0.799713 -0.102011 0)
(-0.799075 -0.146808 0)
(-0.796222 -0.191577 0)
(-0.790116 -0.235527 0)
(-0.77926 -0.277403 0)
(-0.761697 -0.315386 0)
(-0.735163 -0.347038 0)
(-0.697365 -0.369393 0)
(-0.646463 -0.379281 0)
(-0.581704 -0.373876 0)
(-0.504108 -0.351466 0)
(-0.416954 -0.312299 0)
(-0.325818 -0.259205 0)
(-0.237858 -0.197611 0)
(-0.160269 -0.134595 0)
(-0.0982321 -0.0769992 0)
(-0.0533086 -0.029371 0)
(-0.0235744 0.00687289 0)
(-0.00555672 0.0324513 0)
(0.00361749 0.0482953 0)
(0.00646047 0.0552494 0)
(0.00529068 0.0535888 0)
(0.00248812 0.0423774 0)
(0.000209297 0.0191575 0)
(-0.000171641 -0.0137893 0)
(-0.00796394 -0.0118355 0)
(-0.0241184 0.0101961 0)
(-0.0484334 0.0434988 0)
(-0.0812267 0.0826334 0)
(-0.123135 0.125382 0)
(-0.174296 0.170816 0)
(-0.233639 0.217337 0)
(-0.298697 0.262097 0)
(-0.366138 0.301643 0)
(-0.43254 0.332912 0)
(-0.494995 0.353891 0)
(-0.55139 0.363777 0)
(-0.600421 0.36279 0)
(-0.641508 0.351872 0)
(-0.674683 0.332403 0)
(-0.700475 0.305955 0)
(-0.719785 0.274111 0)
(-0.733747 0.238332 0)
(-0.743561 0.199838 0)
(-0.75035 0.159538 0)
(-0.755108 0.118063 0)
(-0.758645 0.0757994 0)
(-0.761551 0.0329084 0)
(-0.764269 -0.0105744 0)
(-0.767118 -0.0546742 0)
(-0.770218 -0.099484 0)
(-0.773481 -0.145067 0)
(-0.776595 -0.191344 0)
(-0.778879 -0.238 0)
(-0.779156 -0.28434 0)
(-0.775635 -0.329097 0)
(-0.765868 -0.37024 0)
(-0.746835 -0.404886 0)
(-0.715283 -0.429363 0)
(-0.668361 -0.439571 0)
(-0.604491 -0.431715 0)
(-0.524352 -0.403377 0)
(-0.431633 -0.35471 0)
(-0.333159 -0.289368 0)
(-0.237972 -0.214565 0)
(-0.155215 -0.139708 0)
(-0.0912431 -0.0736183 0)
(-0.0473982 -0.0215298 0)
(-0.0204262 0.0158079 0)
(-0.00546992 0.0401168 0)
(0.00120645 0.0527809 0)
(0.00267493 0.0543887 0)
(0.00160637 0.0442029 0)
(0.000183962 0.0201687 0)
(-0.00107231 -0.00816932 0)
(-0.0144144 0.00339984 0)
(-0.0373646 0.0341349 0)
(-0.069039 0.0760369 0)
(-0.109494 0.124124 0)
(-0.158983 0.175936 0)
(-0.216764 0.229502 0)
(-0.280679 0.281863 0)
(-0.347455 0.329207 0)
(-0.41348 0.367865 0)
(-0.475524 0.395205 0)
(-0.531143 0.409981 0)
(-0.57879 0.412226 0)
(-0.617764 0.402938 0)
(-0.648123 0.383741 0)
(-0.670553 0.35658 0)
(-0.686198 0.323455 0)
(-0.696454 0.286201 0)
(-0.702759 0.246344 0)
(-0.706411 0.205011 0)
(-0.708483 0.162937 0)
(-0.709807 0.120546 0)
(-0.710971 0.0780031 0)
(-0.712367 0.0352986 0)
(-0.714309 -0.00766577 0)
(-0.717049 -0.0510421 0)
(-0.720721 -0.0950296 0)
(-0.725437 -0.13983 0)
(-0.731217 -0.18561 0)
(-0.737869 -0.232447 0)
(-0.744848 -0.280206 0)
(-0.751044 -0.32834 0)
(-0.754557 -0.375642 0)
(-0.752548 -0.419944 0)
(-0.741282 -0.457894 0)
(-0.716496 -0.48497 0)
(-0.674196 -0.495906 0)
(-0.61185 -0.485659 0)
(-0.529745 -0.45089 0)
(-0.432073 -0.39167 0)
(-0.327161 -0.312793 0)
(-0.226231 -0.223843 0)
(-0.140477 -0.137175 0)
(-0.0771146 -0.0638155 0)
(-0.0365894 -0.00930578 0)
(-0.0137798 0.0268077 0)
(-0.00262546 0.0471512 0)
(0.00130409 0.0532525 0)
(0.00144719 0.0450207 0)
(0.000288227 0.0209466 0)
(-0.00217948 0.00130864 0)
(-0.0214255 0.025018 0)
(-0.0510196 0.0650573 0)
(-0.089498 0.115738 0)
(-0.136547 0.172606 0)
(-0.19181 0.232553 0)
(-0.25359 0.292326 0)
(-0.318881 0.347801 0)
(-0.384015 0.394674 0)
(-0.445472 0.429524 0)
(-0.500447 0.450443 0)
(-0.547081 0.457087 0)
(-0.584494 0.450394 0)
(-0.612711 0.432189 0)
(-0.632531 0.404799 0)
(-0.645317 0.370686 0)
(-0.652717 0.332129 0)
(-0.656392 0.290999 0)
(-0.657795 0.248659 0)
(-0.658049 0.205963 0)
(-0.657942 0.163354 0)
(-0.657971 0.120989 0)
(-0.658407 0.0788382 0)
(-0.65939 0.0367728 0)
(-0.661034 -0.00537177 0)
(-0.663479 -0.0477712 0)
(-0.666828 -0.0906045 0)
(-0.671267 -0.134068 0)
(-0.677015 -0.178393 0)
(-0.684272 -0.223837 0)
(-0.693106 -0.270637 0)
(-0.703251 -0.318885 0)
(-0.713821 -0.368293 0)
(-0.722976 -0.417819 0)
(-0.727622 -0.465215 0)
(-0.723348 -0.506629 0)
(-0.704821 -0.536521 0)
(-0.666782 -0.548164 0)
(-0.605642 -0.534957 0)
(-0.521348 -0.492477 0)
(-0.418864 -0.420878 0)
(-0.30842 -0.32672 0)
(-0.203739 -0.222885 0)
(-0.117976 -0.125396 0)
(-0.0584546 -0.0473728 0)
(-0.0236432 0.00624559 0)
(-0.00618855 0.0377631 0)
(0.000679941 0.0503924 0)
(0.00181018 0.0453568 0)
(0.000485827 0.0218743 0)
(-0.00335786 0.0148782 0)
(-0.0283503 0.0528178 0)
(-0.0639638 0.102338 0)
(-0.108202 0.161517 0)
(-0.16027 0.22636 0)
(-0.219097 0.292806 0)
(-0.282162 0.356347 0)
(-0.345947 0.412058 0)
(-0.406751 0.455605 0)
(-0.461407 0.484167 0)
(-0.507685 0.496757 0)
(-0.544433 0.494046 0)
(-0.57155 0.477947 0)
(-0.589869 0.451136 0)
(-0.600909 0.416566 0)
(-0.606548 0.37703 0)
(-0.608665 0.33482 0)
(-0.608868 0.291578 0)
(-0.60834 0.248294 0)
(-0.607827 0.205434 0)
(-0.607718 0.163109 0)
(-0.608156 0.121237 0)
(-0.609136 0.0796525 0)
(-0.610592 0.0381779 0)
(-0.612482 -0.00334754 0)
(-0.614852 -0.0450514 0)
(-0.617754 -0.0870376 0)
(-0.621333 -0.129414 0)
(-0.625837 -0.172336 0)
(-0.631605 -0.216037 0)
(-0.639036 -0.260853 0)
(-0.648479 -0.3072 0)
(-0.660025 -0.355459 0)
(-0.673148 -0.405684 0)
(-0.686205 -0.457107 0)
(-0.695952 -0.507456 0)
(-0.697325 -0.552313 0)
(-0.683829 -0.584876 0)
(-0.648835 -0.59658 0)
(-0.587701 -0.5789 0)
(-0.500257 -0.526289 0)
(-0.392713 -0.439518 0)
(-0.277808 -0.328018 0)
(-0.172117 -0.209261 0)
(-0.0902934 -0.10356 0)
(-0.0383205 -0.0252676 0)
(-0.0113363 0.0229116 0)
(-0.000154075 0.045369 0)
(0.00229733 0.0453555 0)
(0.00072066 0.0231568 0)
(-0.00444352 0.0323872 0)
(-0.0345362 0.0861347 0)
(-0.0751403 0.144921 0)
(-0.123722 0.21187 0)
(-0.178947 0.283347 0)
(-0.239061 0.354221 0)
(-0.30096 0.418935 0)
(-0.360951 0.472182 0)
(-0.41557 0.509989 0)
(-0.462179 0.530393 0)
(-0.499249 0.533486 0)
(-0.526426 0.521046 0)
(-0.544446 0.49599 0)
(-0.554891 0.461757 0)
(-0.55981 0.421715 0)
(-0.56129 0.378683 0)
(-0.561103 0.334672 0)
(-0.560518 0.290865 0)
(-0.560271 0.24777 0)
(-0.56067 0.205451 0)
(-0.561746 0.163748 0)
(-0.563385 0.122429 0)
(-0.565429 0.0812811 0)
(-0.567724 0.0401377 0)
(-0.570165 -0.00111465 0)
(-0.572753 -0.0425385 0)
(-0.575508 -0.0841641 0)
(-0.578491 -0.126007 0)
(-0.581862 -0.168111 0)
(-0.585888 -0.21058 0)
(-0.590968 -0.253641 0)
(-0.597643 -0.297693 0)
(-0.606531 -0.343335 0)
(-0.618109 -0.391271 0)
(-0.632276 -0.441983 0)
(-0.64769 -0.495068 0)
(-0.661014 -0.548253 0)
(-0.666494 -0.596392 0)
(-0.656377 -0.631027 0)
(-0.622567 -0.641253 0)
(-0.559472 -0.616326 0)
(-0.467294 -0.549806 0)
(-0.35434 -0.444129 0)
(-0.236688 -0.313371 0)
(-0.133897 -0.181255 0)
(-0.0609067 -0.0724184 0)
(-0.0200558 -0.000196905 0)
(-0.00226795 0.0369457 0)
(0.00247016 0.0446315 0)
(0.000940078 0.024755 0)
(-0.00528812 0.0532742 0)
(-0.0394222 0.12391 0)
(-0.0836907 0.191434 0)
(-0.134993 0.265061 0)
(-0.191456 0.341492 0)
(-0.250778 0.41457 0)
(-0.309545 0.478004 0)
(-0.364159 0.526496 0)
(-0.411591 0.556745 0)
(-0.44985 0.567845 0)
(-0.478186 0.561086 0)
(-0.497075 0.539394 0)
(-0.508015 0.506609 0)
(-0.51313 0.466713 0)
(-0.514683 0.423167 0)
(-0.51463 0.378493 0)
(-0.51436 0.334172 0)
(-0.514644 0.29082 0)
(-0.515749 0.248474 0)
(-0.517628 0.206896 0)
(-0.520086 0.165772 0)
(-0.522908 0.124833 0)
(-0.525911 0.0838916 0)
(-0.528954 0.042831 0)
(-0.53195 0.00159319 0)
(-0.534903 -0.0398365 0)
(-0.53783 -0.0814434 0)
(-0.540725 -0.123198 0)
(-0.543644 -0.165067 0)
(-0.546699 -0.207039 0)
(-0.550114 -0.249168 0)
(-0.554284 -0.291649 0)
(-0.559831 -0.334926 0)
(-0.567589 -0.379772 0)
(-0.578413 -0.427248 0)
(-0.592668 -0.478338 0)
(-0.609354 -0.53306 0)
(-0.625039 -0.589065 0)
(-0.63315 -0.640161 0)
(-0.624456 -0.675675 0)
(-0.589345 -0.681743 0)
(-0.521669 -0.645168 0)
(-0.422916 -0.559382 0)
(-0.304694 -0.430479 0)
(-0.187306 -0.279818 0)
(-0.092843 -0.138946 0)
(-0.0339617 -0.0351809 0)
(-0.00650238 0.0231766 0)
(0.00201293 0.042315 0)
(0.00111659 0.0264184 0)
(-0.00577031 0.0766334 0)
(-0.0425961 0.164812 0)
(-0.0890416 0.240329 0)
(-0.141398 0.319319 0)
(-0.197316 0.398895 0)
(-0.254131 0.472055 0)
(-0.308367 0.532107 0)
(-0.356727 0.574101 0)
(-0.396738 0.595649 0)
(-0.427125 0.597049 0)
(-0.447927 0.580848 0)
(-0.46037 0.55106 0)
(-0.466512 0.512244 0)
(-0.468722 0.468607 0)
(-0.469143 0.423357 0)
(-0.469336 0.378449 0)
(-0.470165 0.334721 0)
(-0.471912 0.292244 0)
(-0.474486 0.250711 0)
(-0.477637 0.209721 0)
(-0.481105 0.168942 0)
(-0.484691 0.12815 0)
(-0.488273 0.0872227 0)
(-0.491773 0.0461022 0)
(-0.495156 0.00477155 0)
(-0.498453 -0.0367605 0)
(-0.501692 -0.078469 0)
(-0.504842 -0.120324 0)
(-0.507893 -0.162273 0)
(-0.510843 -0.204251 0)
(-0.51373 -0.246195 0)
(-0.516692 -0.2881 0)
(-0.520069 -0.330116 0)
(-0.524509 -0.372709 0)
(-0.531021 -0.416828 0)
(-0.540826 -0.463924 0)
(-0.554771 -0.51554 0)
(-0.572179 -0.572138 0)
(-0.589359 -0.631108 0)
(-0.598629 -0.684641 0)
(-0.589044 -0.718942 0)
(-0.54958 -0.716454 0)
(-0.474274 -0.661754 0)
(-0.367347 -0.549928 0)
(-0.245338 -0.394024 0)
(-0.133349 -0.226071 0)
(-0.0540413 -0.0858263 0)
(-0.0133494 0.00164355 0)
(0.000773796 0.0372251 0)
(0.00125402 0.0277884 0)
(-0.00581454 0.101332 0)
(-0.0438253 0.207359 0)
(-0.090929 0.290031 0)
(-0.14277 0.372994 0)
(-0.196621 0.453974 0)
(-0.249649 0.525376 0)
(-0.298515 0.580425 0)
(-0.340358 0.614789 0)
(-0.373324 0.627167 0)
(-0.396858 0.619148 0)
(-0.411709 0.594505 0)
(-0.419673 0.558175 0)
(-0.423098 0.515139 0)
(-0.424284 0.469478 0)
(-0.425006 0.423858 0)
(-0.426302 0.379536 0)
(-0.428533 0.336727 0)
(-0.431614 0.29509 0)
(-0.435263 0.254136 0)
(-0.439183 0.213448 0)
(-0.443158 0.172758 0)
(-0.447071 0.131931 0)
(-0.450882 0.090913 0)
(-0.454578 0.0496928 0)
(-0.458164 0.00827293 0)
(-0.461703 -0.0333362 0)
(-0.465233 -0.0751192 0)
(-0.468727 -0.117068 0)
(-0.472158 -0.159147 0)
(-0.475477 -0.201297 0)
(-0.478621 -0.243429 0)
(-0.481543 -0.285434 0)
(-0.484282 -0.327239 0)
(-0.487095 -0.368937 0)
(-0.490627 -0.411003 0)
(-0.49605 -0.454572 0)
(-0.504948 -0.501556 0)
(-0.518623 -0.554158 0)
(-0.536602 -0.613226 0)
(-0.554643 -0.675421 0)
(-0.563494 -0.730311 0)
(-0.550172 -0.759773 0)
(-0.502632 -0.741958 0)
(-0.416564 -0.660309 0)
(-0.301082 -0.515046 0)
(-0.179331 -0.331221 0)
(-0.0805198 -0.154852 0)
(-0.0231572 -0.0304538 0)
(-0.00128077 0.0280299 0)
(0.00137182 0.0284877 0)
(-0.00539753 0.126125 0)
(-0.0430537 0.250044 0)
(-0.089372 0.339049 0)
(-0.139316 0.424661 0)
(-0.189902 0.505522 0)
(-0.238292 0.573722 0)
(-0.281436 0.622682 0)
(-0.316977 0.648884 0)
(-0.343685 0.652226 0)
(-0.361655 0.635589 0)
(-0.372196 0.603857 0)
(-0.377437 0.562637 0)
(-0.379736 0.517 0)
(-0.381088 0.470599 0)
(-0.382778 0.425399 0)
(-0.385336 0.381955 0)
(-0.388746 0.339986 0)
(-0.392723 0.298917 0)
(-0.396946 0.258226 0)
(-0.401175 0.217574 0)
(-0.405287 0.176795 0)
(-0.409253 0.13584 0)
(-0.413096 0.0947081 0)
(-0.416846 0.0534093 0)
(-0.420528 0.0119481 0)
(-0.424214 -0.0296747 0)
(-0.427955 -0.0714585 0)
(-0.431735 -0.113418 0)
(-0.435531 -0.155548 0)
(-0.439301 -0.197823 0)
(-0.442963 -0.24018 0)
(-0.446402 -0.28251 0)
(-0.449493 -0.324659 0)
(-0.452179 -0.366482 0)
(-0.45463 -0.407998 0)
(-0.457488 -0.449704 0)
(-0.462092 -0.492992 0)
(-0.47041 -0.540364 0)
(-0.484177 -0.594761 0)
(-0.502885 -0.657206 0)
(-0.521152 -0.72276 0)
(-0.527466 -0.776793 0)
(-0.506692 -0.795282 0)
(-0.446872 -0.752084 0)
(-0.347723 -0.63255 0)
(-0.225986 -0.448184 0)
(-0.112344 -0.242564 0)
(-0.0364031 -0.0761137 0)
(-0.00422453 0.013228 0)
(0.00146143 0.0281067 0)
(-0.00454393 0.149776 0)
(-0.0403736 0.291429 0)
(-0.0846127 0.386062 0)
(-0.13152 0.473177 0)
(-0.177968 0.552704 0)
(-0.221251 0.616707 0)
(-0.258696 0.659016 0)
(-0.288469 0.677059 0)
(-0.309911 0.671968 0)
(-0.323642 0.647845 0)
(-0.331332 0.610488 0)
(-0.335202 0.565883 0)
(-0.337397 0.518897 0)
(-0.339483 0.47256 0)
(-0.342253 0.428094 0)
(-0.345845 0.385463 0)
(-0.350021 0.344064 0)
(-0.354448 0.303245 0)
(-0.358859 0.262555 0)
(-0.363114 0.221769 0)
(-0.36718 0.180823 0)
(-0.371092 0.139726 0)
(-0.374911 0.0985034 0)
(-0.378679 0.057168 0)
(-0.382422 0.0157154 0)
(-0.386208 -0.0258675 0)
(-0.390096 -0.0675917 0)
(-0.394076 -0.10949 0)
(-0.398133 -0.15158 0)
(-0.402246 -0.193868 0)
(-0.406359 -0.236336 0)
(-0.410369 -0.278924 0)
(-0.414123 -0.321503 0)
(-0.417427 -0.363868 0)
(-0.420137 -0.405795 0)
(-0.422347 -0.447237 0)
(-0.424719 -0.488756 0)
(-0.428828 -0.532125 0)
(-0.437082 -0.580638 0)
(-0.45154 -0.638073 0)
(-0.471174 -0.705085 0)
(-0.48859 -0.773478 0)
(-0.48927 -0.822037 0)
(-0.456319 -0.819422 0)
(-0.380119 -0.73701 0)
(-0.267988 -0.568463 0)
(-0.146947 -0.346012 0)
(-0.0534036 -0.137552 0)
(-0.00822338 -0.00881438 0)
(0.00147482 0.0261891 0)
(-0.00331636 0.171139 0)
(-0.0359872 0.330218 0)
(-0.0770436 0.42996 0)
(-0.120027 0.517681 0)
(-0.161763 0.595015 0)
(-0.19977 0.654273 0)
(-0.231795 0.689842 0)
(-0.256499 0.700162 0)
(-0.273699 0.687559 0)
(-0.284379 0.657217 0)
(-0.290366 0.615615 0)
(-0.293768 0.568845 0)
(-0.296384 0.521351 0)
(-0.299328 0.475462 0)
(-0.302989 0.431727 0)
(-0.307253 0.389675 0)
(-0.311808 0.348546 0)
(-0.31636 0.307724 0)
(-0.32074 0.266875 0)
(-0.324901 0.225889 0)
(-0.328874 0.184772 0)
(-0.332728 0.143563 0)
(-0.336535 0.102292 0)
(-0.340335 0.0609618 0)
(-0.344144 0.0195545 0)
(-0.348017 -0.0219552 0)
(-0.35202 -0.063586 0)
(-0.356146 -0.105383 0)
(-0.360381 -0.147376 0)
(-0.36472 -0.189593 0)
(-0.369135 -0.232051 0)
(-0.373563 -0.274742 0)
(-0.377889 -0.317604 0)
(-0.381925 -0.360487 0)
(-0.385421 -0.403129 0)
(-0.388151 -0.445214 0)
(-0.390165 -0.486643 0)
(-0.392218 -0.528142 0)
(-0.396219 -0.572116 0)
(-0.405079 -0.622974 0)
(-0.42096 -0.685233 0)
(-0.441475 -0.757893 0)
(-0.455944 -0.826701 0)
(-0.44634 -0.860849 0)
(-0.39571 -0.821503 0)
(-0.300785 -0.683207 0)
(-0.18078 -0.45952 0)
(-0.0736103 -0.215122 0)
(-0.0135238 -0.0398833 0)
(0.0013904 0.0222541 0)
(-0.00180371 0.189236 0)
(-0.0301657 0.365295 0)
(-0.0671383 0.469858 0)
(-0.105546 0.557575 0)
(-0.142242 0.632217 0)
(-0.175018 0.686585 0)
(-0.202047 0.715722 0)
(-0.222421 0.719063 0)
(-0.236313 0.700037 0)
(-0.244902 0.66473 0)
(-0.249989 0.620063 0)
(-0.253431 0.572018 0)
(-0.256633 0.524497 0)
(-0.260307 0.479148 0)
(-0.264562 0.435976 0)
(-0.269164 0.394238 0)
(-0.273815 0.353137 0)
(-0.278308 0.312158 0)
(-0.282566 0.271088 0)
(-0.286609 0.229903 0)
(-0.290503 0.188651 0)
(-0.294326 0.147377 0)
(-0.298144 0.106098 0)
(-0.301995 0.0648074 0)
(-0.305879 0.0234714 0)
(-0.309839 -0.017945 0)
(-0.313947 -0.0594647 0)
(-0.318202 -0.101142 0)
(-0.32258 -0.143013 0)
(-0.327084 -0.185118 0)
(-0.331701 -0.227492 0)
(-0.3364 -0.270164 0)
(-0.341117 -0.313132 0)
(-0.345719 -0.356331 0)
(-0.349989 -0.399578 0)
(-0.353619 -0.442533 0)
(-0.356322 -0.484779 0)
(-0.358146 -0.526216 0)
(-0.360053 -0.567939 0)
(-0.364464 -0.613397 0)
(-0.374832 -0.668468 0)
(-0.39284 -0.737828 0)
(-0.4133 -0.816162 0)
(-0.420849 -0.878787 0)
(-0.394613 -0.882578 0)
(-0.321484 -0.784909 0)
(-0.210277 -0.576026 0)
(-0.0954244 -0.306784 0)
(-0.0203505 -0.0816555 0)
(0.00125054 0.0158179 0)
(-0.00011017 0.203288 0)
(-0.0232156 0.395735 0)
(-0.0553945 0.505082 0)
(-0.0887796 0.592482 0)
(-0.120292 0.664263 0)
(-0.148014 0.713943 0)
(-0.17052 0.737252 0)
(-0.187254 0.734558 0)
(-0.198613 0.710249 0)
(-0.205816 0.671114 0)
(-0.210501 0.624316 0)
(-0.214198 0.575581 0)
(-0.217934 0.528245 0)
(-0.222112 0.483361 0)
(-0.226672 0.440538 0)
(-0.231358 0.39889 0)
(-0.235935 0.357665 0)
(-0.240283 0.316463 0)
(-0.244396 0.275172 0)
(-0.248333 0.233826 0)
(-0.252171 0.192487 0)
(-0.25598 0.15119 0)
(-0.259822 0.10994 0)
(-0.263728 0.068715 0)
(-0.267688 0.0274714 0)
(-0.27173 -0.0138352 0)
(-0.275941 -0.055229 0)
(-0.280326 -0.0967744 0)
(-0.284845 -0.138511 0)
(-0.289502 -0.180485 0)
(-0.294291 -0.222742 0)
(-0.299196 -0.265328 0)
(-0.304182 -0.308281 0)
(-0.309176 -0.351605 0)
(-0.31403 -0.395219 0)
(-0.318487 -0.438884 0)
(-0.322181 -0.482154 0)
(-0.324782 -0.524511 0)
(-0.326428 -0.565968 0)
(-0.32848 -0.608381 0)
(-0.33408 -0.656886 0)
(-0.34704 -0.719025 0)
(-0.36736 -0.797728 0)
(-0.384976 -0.878329 0)
(-0.37909 -0.920232 0)
(-0.32915 -0.868459 0)
(-0.232682 -0.688514 0)
(-0.116689 -0.408545 0)
(-0.0287039 -0.135281 0)
(0.0011176 0.00636873 0)
(0.00165457 0.212738 0)
(-0.0154533 0.420806 0)
(-0.0422945 0.535142 0)
(-0.0703704 0.622194 0)
(-0.096683 0.691231 0)
(-0.119592 0.736695 0)
(-0.138034 0.754992 0)
(-0.151714 0.74731 0)
(-0.161131 0.718822 0)
(-0.16742 0.676837 0)
(-0.171963 0.628602 0)
(-0.175945 0.579522 0)
(-0.180062 0.53241 0)
(-0.184505 0.487847 0)
(-0.189139 0.445178 0)
(-0.193741 0.403468 0)
(-0.19815 0.362044 0)
(-0.202321 0.320612 0)
(-0.20629 0.279134 0)
(-0.210133 0.237674 0)
(-0.213922 0.196292 0)
(-0.217719 0.155009 0)
(-0.221578 0.113816 0)
(-0.225528 0.07268 0)
(-0.229556 0.0315499 0)
(-0.23367 -0.00962709 0)
(-0.23798 -0.0508754 0)
(-0.242501 -0.0922721 0)
(-0.247171 -0.133861 0)
(-0.251997 -0.175691 0)
(-0.256969 -0.217814 0)
(-0.262075 -0.260283 0)
(-0.267297 -0.303157 0)
(-0.272594 -0.346481 0)
(-0.277877 -0.390257 0)
(-0.282973 -0.434369 0)
(-0.287573 -0.478485 0)
(-0.291254 -0.522014 0)
(-0.293688 -0.564367 0)
(-0.295251 -0.605957 0)
(-0.297982 -0.650107 0)
(-0.305921 -0.704456 0)
(-0.322526 -0.777491 0)
(-0.343836 -0.865718 0)
(-0.352696 -0.937196 0)
(-0.324592 -0.931465 0)
(-0.24648 -0.791117 0)
(-0.135352 -0.515355 0)
(-0.0381937 -0.200531 0)
(0.000969167 -0.00656282 0)
(0.00338455 0.217274 0)
(-0.00718788 0.439921 0)
(-0.028287 0.559693 0)
(-0.0508816 0.646622 0)
(-0.0720556 0.713265 0)
(-0.0904042 0.755186 0)
(-0.105176 0.769419 0)
(-0.116259 0.757826 0)
(-0.124151 0.726187 0)
(-0.12981 0.682162 0)
(-0.13431 0.632983 0)
(-0.138503 0.583734 0)
(-0.142824 0.536792 0)
(-0.147327 0.492396 0)
(-0.151868 0.449733 0)
(-0.156279 0.407874 0)
(-0.160473 0.366232 0)
(-0.164452 0.324597 0)
(-0.168278 0.282979 0)
(-0.172024 0.241451 0)
(-0.175757 0.200064 0)
(-0.179528 0.158824 0)
(-0.183384 0.117711 0)
(-0.18736 0.0766863 0)
(-0.191441 0.0356946 0)
(-0.195613 -0.00532595 0)
(-0.200012 -0.0464028 0)
(-0.204674 -0.0876252 0)
(-0.209511 -0.129044 0)
(-0.214525 -0.170713 0)
(-0.219707 -0.212684 0)
(-0.225043 -0.255016 0)
(-0.230519 -0.297775 0)
(-0.236108 -0.341031 0)
(-0.241759 -0.384837 0)
(-0.247361 -0.429176 0)
(-0.252697 -0.473858 0)
(-0.257399 -0.518401 0)
(-0.260991 -0.562038 0)
(-0.263239 -0.60426 0)
(-0.26502 -0.646482 0)
(-0.269422 -0.694642 0)
(-0.28123 -0.759419 0)
(-0.301638 -0.846913 0)
(-0.319389 -0.937867 0)
(-0.309839 -0.974007 0)
(-0.251419 -0.879717 0)
(-0.149929 -0.622083 0)
(-0.0480888 -0.275644 0)
(0.000664884 -0.0234218 0)
(0.00493828 0.216708 0)
(0.00127553 0.452739 0)
(-0.0137714 0.578477 0)
(-0.0307943 0.665754 0)
(-0.046923 0.730531 0)
(-0.0609364 0.769714 0)
(-0.0723486 0.780905 0)
(-0.0811593 0.766466 0)
(-0.0877913 0.73261 0)
(-0.0929613 0.687207 0)
(-0.0974206 0.637426 0)
(-0.101713 0.588077 0)
(-0.106072 0.541214 0)
(-0.110479 0.496848 0)
(-0.114811 0.454092 0)
(-0.118966 0.412049 0)
(-0.122912 0.370206 0)
(-0.126687 0.32841 0)
(-0.130358 0.286698 0)
(-0.133993 0.245143 0)
(-0.137649 0.203783 0)
(-0.141371 0.162613 0)
(-0.1452 0.121603 0)
(-0.149181 0.0807134 0)
(-0.153299 0.0398904 0)
(-0.15751 -0.000936227 0)
(-0.161984 -0.0418113 0)
(-0.166789 -0.0828239 0)
(-0.171804 -0.124043 0)
(-0.177027 -0.165522 0)
(-0.182446 -0.207319 0)
(-0.188048 -0.24949 0)
(-0.193817 -0.292108 0)
(-0.199732 -0.335252 0)
(-0.205758 -0.379009 0)
(-0.211825 -0.423425 0)
(-0.217786 -0.468432 0)
(-0.223363 -0.513704 0)
(-0.228118 -0.558543 0)
(-0.231569 -0.602037 0)
(-0.233765 -0.644172 0)
(-0.236491 -0.688554 0)
(-0.244186 -0.745238 0)
(-0.261232 -0.826594 0)
(-0.282814 -0.927206 0)
(-0.287542 -0.998013 0)
(-0.24827 -0.952065 0)
(-0.159684 -0.724229 0)
(-0.0575556 -0.357856 0)
(-4.96053e-06 -0.0446341 0)
(0.00616079 0.211269 0)
(0.00957384 0.458819 0)
(0.000927577 0.591403 0)
(-0.0105089 0.679597 0)
(-0.0216916 0.743181 0)
(-0.0315454 0.780512 0)
(-0.0398118 0.789705 0)
(-0.0465522 0.773456 0)
(-0.052064 0.738228 0)
(-0.0567912 0.691997 0)
(-0.0611589 0.641856 0)
(-0.0654364 0.592417 0)
(-0.0696993 0.545533 0)
(-0.0738945 0.501092 0)
(-0.0779393 0.458183 0)
(-0.0817909 0.415954 0)
(-0.0854642 0.373944 0)
(-0.0890137 0.332035 0)
(-0.0925067 0.290274 0)
(-0.096005 0.248728 0)
(-0.099558 0.207425 0)