/*--------------------------------*- C++ -*----------------------------------*\
  =========                 |
  \\      /  F ield         | OpenFOAM: The Open Source CFD Toolbox
   \\    /   O peration     | Website:  https://openfoam.org
    \\  /    A nd           | Version:  7
     \\/     M anipulation  |
\*---------------------------------------------------------------------------*/
FoamFile
{
    version     2.0;
    format      ascii;
    class       volScalarField;
    location    "400";
    object      p;
}
// * * * * * * * * * * * * * * * * * * * * * * * * * * * * * * * * * * * * * //

dimensions      [0 2 -2 0 0 0 0];

internalField   nonuniform List<scalar> 
2500
(
3.05956e-07
7.12961e-05
-8.98491e-06
-0.000308337
-0.000783338
-0.00137154
-0.0020328
-0.00276269
-0.00358701
-0.0045465
-0.00568126
-0.00702119
-0.00858319
-0.0103669
-0.0123489
-0.0144746
-0.0166516
-0.0187478
-0.0205975
-0.0220181
-0.0228339
-0.0229049
-0.0221548
-0.0205995
-0.018364
-0.0156744
-0.0128517
-0.0103138
-0.00852355
-0.00792061
-0.00884072
-0.0114251
-0.0155632
-0.0209615
-0.0271624
-0.0336043
-0.039757
-0.0452172
-0.0497518
-0.053284
-0.0558624
-0.057621
-0.0587339
-0.0593769
-0.0597021
-0.0598257
-0.0598257
-0.059745
-0.059606
-0.0594668
-6.86686e-05
3.9844e-06
-8.02061e-05
-0.000377169
-0.000830097
-0.00137482
-0.00197627
-0.00263598
-0.00338265
-0.00425665
-0.00529685
-0.00653321
-0.00798644
-0.00966424
-0.0115549
-0.0136214
-0.0157926
-0.0179565
-0.0199598
-0.0216179
-0.0227376
-0.0231482
-0.0227351
-0.0214731
-0.0194565
-0.0169015
-0.0141451
-0.0116231
-0.00981739
-0.00918684
-0.010083
-0.0126684
-0.0168624
-0.022319
-0.0285357
-0.0349643
-0.0410501
-0.0463499
-0.0506214
-0.0538353
-0.056108
-0.0576205
-0.0585659
-0.0591172
-0.0594106
-0.0595435
-0.0595782
-0.059544
-0.0594428
-0.0593111
-1.83903e-05
5.00986e-05
-5.72495e-05
-0.000380239
-0.000833129
-0.00134015
-0.00187122
-0.00243926
-0.00308543
-0.00385734
-0.00479918
-0.00595138
-0.00735208
-0.00903584
-0.0110226
-0.0133012
-0.0158108
-0.0184293
-0.0209734
-0.0232159
-0.0249165
-0.0258604
-0.0258952
-0.024969
-0.0231732
-0.0207345
-0.0179898
-0.015373
-0.0133777
-0.0124864
-0.0130837
-0.0153714
-0.019308
-0.024595
-0.0307252
-0.0370775
-0.043072
-0.0482647
-0.0523726
-0.0553275
-0.0572572
-0.0584064
-0.0590286
-0.0593288
-0.0594517
-0.0594874
-0.0594827
-0.0594475
-0.0593518
-0.0592075
0.000229455
0.000267161
0.000102182
-0.000279654
-0.000755848
-0.00123748
-0.00170373
-0.00218687
-0.00274809
-0.00345861
-0.004392
-0.005628
-0.00725173
-0.0093403
-0.0119365
-0.0150197
-0.0184861
-0.0221464
-0.0257438
-0.0289866
-0.0315897
-0.033313
-0.0339911
-0.0335597
-0.0320901
-0.0297844
-0.0269547
-0.0240218
-0.0214815
-0.019842
-0.0195434
-0.0208688
-0.023871
-0.0283401
-0.0338282
-0.0397329
-0.0454306
-0.0504
-0.0543424
-0.0571663
-0.0589205
-0.0598153
-0.060131
-0.0601279
-0.0599909
-0.0598301
-0.0596963
-0.0595905
-0.0594606
-0.0592958
0.000709649
0.000679022
0.000419216
-4.34487e-05
-0.000554951
-0.0010291
-0.00146056
-0.00190956
-0.00247708
-0.0032854
-0.00447196
-0.00618498
-0.00856386
-0.0117039
-0.0156188
-0.0202166
-0.0252998
-0.0305863
-0.0357449
-0.040434
-0.0443389
-0.0472021
-0.0488453
-0.0491838
-0.0482466
-0.0461792
-0.0432457
-0.0398312
-0.0364077
-0.0334913
-0.0315763
-0.0310535
-0.0321282
-0.0347609
-0.0386541
-0.0433042
-0.0481108
-0.0525112
-0.0561027
-0.0586955
-0.0603204
-0.0611327
-0.0613231
-0.0611411
-0.0608061
-0.0604619
-0.0601824
-0.059981
-0.0598048
-0.059628
0.001466
0.00133129
0.000951281
0.000399267
-0.000167204
-0.000674092
-0.00114642
-0.00169743
-0.00249688
-0.00375142
-0.00568715
-0.00851816
-0.0123996
-0.0173815
-0.0233824
-0.0301927
-0.0375019
-0.0449378
-0.0521067
-0.0586289
-0.0641678
-0.0684533
-0.0712981
-0.0726038
-0.0723682
-0.0706754
-0.0677224
-0.0638295
-0.0594038
-0.0549212
-0.050885
-0.0477682
-0.0459394
-0.0455879
-0.0466708
-0.0489069
-0.0518343
-0.0549225
-0.0577024
-0.0598618
-0.0612778
-0.0619971
-0.0621831
-0.0619984
-0.0616142
-0.0611898
-0.0608247
-0.0605566
-0.0603516
-0.0601803
0.00253674
0.00227321
0.00176387
0.001112
0.000454642
-0.000165452
-0.000836939
-0.00175609
-0.00319296
-0.00545811
-0.00885336
-0.0136071
-0.0198146
-0.0274072
-0.0361581
-0.0457176
-0.0556606
-0.0655342
-0.0748969
-0.0833499
-0.0905596
-0.0962714
-0.100314
-0.102597
-0.103116
-0.101921
-0.099138
-0.0950002
-0.0898092
-0.0839376
-0.0778168
-0.0719136
-0.0666869
-0.062528
-0.0596913
-0.0582364
-0.0580062
-0.0586628
-0.0597779
-0.060948
-0.0618832
-0.0624423
-0.062623
-0.0625126
-0.0622151
-0.0618417
-0.061492
-0.0612238
-0.0610285
-0.0608836
0.00392796
0.00352837
0.00288889
0.0021148
0.00129874
0.000412327
-0.000730404
-0.00243929
-0.00509982
-0.00910574
-0.0147714
-0.0222508
-0.0314945
-0.0422556
-0.0541332
-0.0666332
-0.0792289
-0.0914116
-0.102728
-0.112803
-0.121351
-0.128176
-0.133152
-0.136222
-0.137401
-0.136751
-0.134343
-0.130322
-0.12487
-0.118216
-0.110649
-0.102517
-0.0942324
-0.0862527
-0.0790389
-0.0729928
-0.06838
-0.0652652
-0.063492
-0.0627278
-0.0625677
-0.0626498
-0.0627284
-0.062696
-0.0625484
-0.0623268
-0.0620941
-0.061904
-0.0617643
-0.061664
0.0055843
0.00505566
0.00428107
0.00334211
0.00224237
0.000842855
-0.00116933
-0.00423054
-0.00881771
-0.0153376
-0.0240172
-0.0348387
-0.0475379
-0.0616547
-0.076611
-0.0917905
-0.106606
-0.12055
-0.133214
-0.144304
-0.153625
-0.16107
-0.166581
-0.17014
-0.171793
-0.171637
-0.169715
-0.166106
-0.160894
-0.154179
-0.146085
-0.136785
-0.126521
-0.11564
-0.104606
-0.0939904
-0.0844114
-0.0764288
-0.070405
-0.0663918
-0.064112
-0.0630681
-0.0627264
-0.0626718
-0.0626734
-0.0626549
-0.0626111
-0.0625651
-0.0625206
-0.0624759
0.0073546
0.00671116
0.00579024
0.00460417
0.00302318
0.000767595
-0.00261504
-0.00766511
-0.0148804
-0.024575
-0.0367811
-0.0512293
-0.0674012
-0.0846251
-0.102181
-0.11939
-0.135682
-0.15062
-0.163907
-0.175364
-0.184908
-0.192519
-0.198208
-0.201992
-0.203935
-0.20416
-0.202706
-0.199612
-0.19491
-0.18862
-0.180749
-0.171312
-0.160354
-0.148005
-0.134538
-0.120429
-0.106385
-0.0932975
-0.0820871
-0.073462
-0.0676738
-0.0644242
-0.0630134
-0.062651
-0.0627262
-0.0629081
-0.0630888
-0.0632274
-0.0633029
-0.0633179
0.00898016
0.00824092
0.00713799
0.0055716
0.00324358
-0.000279588
-0.00557284
-0.0132166
-0.0236252
-0.0369071
-0.0528122
-0.0707771
-0.0900351
-0.109751
-0.12914
-0.147557
-0.164529
-0.179756
-0.19308
-0.204446
-0.213863
-0.22138
-0.227047
-0.230904
-0.233015
-0.233506
-0.232412
-0.229763
-0.225575
-0.21984
-0.212519
-0.203542
-0.192822
-0.180289
-0.16596
-0.150029
-0.132987
-0.1157
-0.0993735
-0.0853445
-0.0746844
-0.0677894
-0.0642189
-0.0629484
-0.0628747
-0.0632175
-0.0636163
-0.0639522
-0.0641575
-0.0642326
0.0101072
0.0092768
0.00792462
0.00580061
0.00241929
-0.00279548
-0.0104899
-0.0211895
-0.0351128
-0.0520698
-0.0714817
-0.0924982
-0.114161
-0.135564
-0.155963
-0.174835
-0.191866
-0.206918
-0.219964
-0.231043
-0.240223
-0.247582
-0.253185
-0.257072
-0.259298
-0.259972
-0.25912
-0.256772
-0.25295
-0.24765
-0.240837
-0.232434
-0.222311
-0.210301
-0.196234
-0.180016
-0.161769
-0.142002
-0.121763
-0.102628
-0.0863891
-0.0744634
-0.0672709
-0.0640525
-0.0633345
-0.0636995
-0.0642945
-0.0648222
-0.0651593
-0.0652976
0.0103068
0.0093711
0.00767857
0.00479843
6.26761e-05
-0.00721016
-0.0176599
-0.0316526
-0.0491164
-0.0695106
-0.0919315
-0.115301
-0.138568
-0.160864
-0.181583
-0.200381
-0.217123
-0.231807
-0.244504
-0.255304
-0.264294
-0.27155
-0.277132
-0.28107
-0.283399
-0.284209
-0.283512
-0.281341
-0.27772
-0.272663
-0.266157
-0.258156
-0.248557
-0.237195
-0.223842
-0.20824
-0.190195
-0.169757
-0.147473
-0.124625
-0.103223
-0.0855566
-0.0733051
-0.0666968
-0.06442
-0.064463
-0.0652062
-0.0659177
-0.0663949
-0.0666084
0.00913558
0.008069
0.00593462
0.00211189
-0.00422292
-0.0137992
-0.0271622
-0.0444274
-0.0651741
-0.0885067
-0.11325
-0.138196
-0.162312
-0.184866
-0.205444
-0.223895
-0.240233
-0.254554
-0.266973
-0.277593
-0.286493
-0.293732
-0.299352
-0.303371
-0.305805
-0.306729
-0.306143
-0.304075
-0.300551
-0.295592
-0.289207
-0.281382
-0.272067
-0.261154
-0.248455
-0.233695
-0.216538
-0.196695
-0.174153
-0.149541
-0.124457
-0.101455
-0.0833281
-0.0718274
-0.0666481
-0.0656732
-0.0664023
-0.0673055
-0.0679471
-0.0682609
0.00621863
0.00498892
0.00232095
-0.00258494
-0.0106648
-0.0226295
-0.038849
-0.0591267
-0.0826781
-0.108295
-0.134619
-0.160421
-0.184784
-0.207173
-0.227377
-0.245405
-0.261373
-0.275422
-0.287676
-0.298221
-0.307115
-0.314396
-0.320091
-0.324203
-0.32674
-0.327763
-0.327269
-0.325278
-0.321812
-0.316889
-0.310528
-0.302734
-0.293498
-0.282776
-0.270461
-0.256356
-0.240142
-0.221407
-0.199764
-0.175165
-0.148394
-0.121522
-0.0977701
-0.0803653
-0.0707558
-0.0676402
-0.0679553
-0.0690468
-0.0698885
-0.070345
0.00131935
-0.000103947
-0.00336849
-0.00942778
-0.0192782
-0.0335485
-0.0523747
-0.075223
-0.100972
-0.128175
-0.155393
-0.18147
-0.205673
-0.227671
-0.247431
-0.265072
-0.280761
-0.294643
-0.306821
-0.317358
-0.326287
-0.33363
-0.339402
-0.343601
-0.346226
-0.347335
-0.346925
-0.345007
-0.341597
-0.336709
-0.330357
-0.322552
-0.313303
-0.302607
-0.29043
-0.276676
-0.261136
-0.243448
-0.22311
-0.199634
-0.172982
-0.144249
-0.1162
-0.0928428
-0.0775657
-0.0708858
-0.0700295
-0.0712068
-0.072296
-0.072951
-0.00561271
-0.00725039
-0.0111338
-0.0183372
-0.0298645
-0.0462128
-0.0672534
-0.0921267
-0.119431
-0.147571
-0.175118
-0.201061
-0.224867
-0.246394
-0.265733
-0.283065
-0.298563
-0.312351
-0.324503
-0.335055
-0.344023
-0.351417
-0.357248
-0.361513
-0.364208
-0.365387
-0.365053
-0.363208
-0.359865
-0.355031
-0.348714
-0.340921
-0.331662
-0.320947
-0.308784
-0.295154
-0.27997
-0.263008
-0.243846
-0.221865
-0.196483
-0.167772
-0.137393
-0.109115
-0.0877073
-0.0760824
-0.0729421
-0.0738878
-0.0752828
-0.0761849
-0.0144278
-0.0162864
-0.020768
-0.0290329
-0.0420457
-0.0601422
-0.082927
-0.109254
-0.137513
-0.166047
-0.193509
-0.219064
-0.242369
-0.263426
-0.282404
-0.299501
-0.314869
-0.328601
-0.34074
-0.351302
-0.360291
-0.367713
-0.37358
-0.377889
-0.380635
-0.381869
-0.381599
-0.379824
-0.376552
-0.371788
-0.365536
-0.357796
-0.348572
-0.337871
-0.325711
-0.312112
-0.297072
-0.28051
-0.262171
-0.241537
-0.217842
-0.190435
-0.159711
-0.128323
-0.101337
-0.0838698
-0.0771502
-0.07725
-0.0789722
-0.0801582
-0.0247967
-0.0268672
-0.0318887
-0.0410768
-0.0553201
-0.0747831
-0.0988259
-0.126071
-0.154778
-0.183294
-0.2104
-0.235436
-0.258218
-0.278847
-0.297526
-0.314441
-0.329711
-0.343396
-0.355513
-0.366067
-0.375054
-0.382483
-0.388364
-0.392699
-0.395482
-0.396756
-0.396541
-0.394827
-0.391625
-0.386937
-0.380765
-0.373107
-0.363961
-0.353329
-0.341221
-0.327663
-0.312692
-0.296322
-0.278469
-0.258815
-0.23669
-0.211146
-0.181576
-0.149122
-0.11801
-0.0946224
-0.0831561
-0.0815221
-0.0834693
-0.0849833
-0.0362579
-0.0385163
-0.0439929
-0.0539334
-0.0691239
-0.0895669
-0.114416
-0.142124
-0.170886
-0.199104
-0.225699
-0.250171
-0.272454
-0.292708
-0.311138
-0.327902
-0.343084
-0.356714
-0.368795
-0.379321
-0.38829
-0.395708
-0.40159
-0.405939
-0.408748
-0.410052
-0.409881
-0.40822
-0.40508
-0.400464
-0.394374
-0.38681
-0.377769
-0.367246
-0.355245
-0.341782
-0.326897
-0.310648
-0.293065
-0.274034
-0.25312
-0.229427
-0.201822
-0.170058
-0.136762
-0.108283
-0.0913849
-0.0869954
-0.0888646
-0.0907788
-0.0482766
-0.0506862
-0.0565185
-0.06703
-0.0828887
-0.103956
-0.129226
-0.157041
-0.185581
-0.213333
-0.239354
-0.263271
-0.285101
-0.305028
-0.323244
-0.339872
-0.354965
-0.368531
-0.38056
-0.391045
-0.399984
-0.407384
-0.413258
-0.417614
-0.420441
-0.421766
-0.421632
-0.420015
-0.416928
-0.412376
-0.406363
-0.398892
-0.38996
-0.379565
-0.367705
-0.354389
-0.339644
-0.323532
-0.306136
-0.28749
-0.267408
-0.245249
-0.219803
-0.189895
-0.156358
-0.124329
-0.102033
-0.0939478
-0.0952495
-0.0976557
-0.0603043
-0.062818
-0.0689022
-0.0798108
-0.0960848
-0.117475
-0.142861
-0.170527
-0.198675
-0.225882
-0.251325
-0.274727
-0.296156
-0.315801
-0.333827
-0.350327
-0.365327
-0.37882
-0.39079
-0.401229
-0.410134
-0.417512
-0.423375
-0.427732
-0.430573
-0.431913
-0.431808
-0.430227
-0.427184
-0.422686
-0.41674
-0.40935
-0.400521
-0.390254
-0.378547
-0.365406
-0.350848
-0.334921
-0.317718
-0.299347
-0.279821
-0.258803
-0.235309
-0.207787
-0.175567
-0.141864
-0.114953
-0.102569
-0.102731
-0.10567
-0.071829
-0.0743957
-0.0806268
-0.0917759
-0.108251
-0.129723
-0.155005
-0.182357
-0.210026
-0.236676
-0.261577
-0.284522
-0.305604
-0.325002
-0.342858
-0.359236
-0.374143
-0.387561
-0.399472
-0.409864
-0.418736
-0.426092
-0.431944
-0.436301
-0.439154
-0.440502
-0.44042
-0.438867
-0.435859
-0.431404
-0.425512
-0.418191
-0.409451
-0.399298
-0.387738
-0.374776
-0.360427
-0.344726
-0.327753
-0.309641
-0.290518
-0.270314
-0.248397
-0.223289
-0.193375
-0.159805
-0.129636
-0.112872
-0.111364
-0.114763
-0.0824345
-0.0849598
-0.0912548
-0.102507
-0.119008
-0.140383
-0.16541
-0.19236
-0.219528
-0.245654
-0.270075
-0.292628
-0.313414
-0.3326
-0.350304
-0.366569
-0.381388
-0.394736
-0.406592
-0.416944
-0.425789
-0.433129
-0.438972
-0.443329
-0.44619
-0.447543
-0.447479
-0.445947
-0.442963
-0.438539
-0.432686
-0.425418
-0.416747
-0.406689
-0.395255
-0.382459
-0.368317
-0.352858
-0.336148
-0.318315
-0.299539
-0.279933
-0.259218
-0.236251
-0.209067
-0.17707
-0.145277
-0.124615
-0.121053
-0.124696
-0.0918053
-0.0941359
-0.100428
-0.111677
-0.128067
-0.149215
-0.173896
-0.200411
-0.227101
-0.252764
-0.276781
-0.29901
-0.319552
-0.338559
-0.356131
-0.372296
-0.387038
-0.400327
-0.41214
-0.422463
-0.43129
-0.438622
-0.444462
-0.448819
-0.451688
-0.453048
-0.452994
-0.451476
-0.448506
-0.444099
-0.438269
-0.431032
-0.422408
-0.412419
-0.401084
-0.388427
-0.374468
-0.359241
-0.342804
-0.325271
-0.306834
-0.28771
-0.267899
-0.246687
-0.222223
-0.19273
-0.160912
-0.137276
-0.131458
-0.135051
-0.0996946
-0.101697
-0.107879
-0.119048
-0.135226
-0.156052
-0.180338
-0.206421
-0.232686
-0.257963
-0.281658
-0.303632
-0.323981
-0.342844
-0.360307
-0.37639
-0.391072
-0.404319
-0.416106
-0.426415
-0.435238
-0.442572
-0.448417
-0.452781
-0.455657
-0.457029
-0.45698
-0.455469
-0.452503
-0.448098
-0.442271
-0.435042
-0.426438
-0.416485
-0.405213
-0.392656
-0.378844
-0.363816
-0.347633
-0.3304
-0.312303
-0.293605
-0.274496
-0.254662
-0.232637
-0.206085
-0.175567
-0.15011
-0.142041
-0.145293
-0.105938
-0.107524
-0.113453
-0.124468
-0.140367
-0.160814
-0.18468
-0.210352
-0.236251
-0.261223
-0.284676
-0.306462
-0.326666
-0.345418
-0.362799
-0.378824
-0.393468
-0.406695
-0.418476
-0.42879
-0.437626
-0.444977
-0.45084
-0.455217
-0.458106
-0.459488
-0.459441
-0.457936
-0.454963
-0.450545
-0.444703
-0.437458
-0.42884
-0.418886
-0.407636
-0.395131
-0.381415
-0.366537
-0.350564
-0.333602
-0.315829
-0.297524
-0.278987
-0.260219
-0.240238
-0.216663
-0.188376
-0.162279
-0.152172
-0.154855
-0.110468
-0.111583
-0.117113
-0.12788
-0.14344
-0.163457
-0.18688
-0.21216
-0.23775
-0.262501
-0.285799
-0.307474
-0.327594
-0.346279
-0.363609
-0.379601
-0.394232
-0.407463
-0.419261
-0.429602
-0.43847
-0.445852
-0.451742
-0.456137
-0.459033
-0.460419
-0.460369
-0.458867
-0.455879
-0.451435
-0.445557
-0.438269
-0.429608
-0.419616
-0.408342
-0.395839
-0.38216
-0.367368
-0.351541
-0.334791
-0.317299
-0.299346
-0.281292
-0.263354
-0.24501
-0.224183
-0.198654
-0.172969
-0.161221
-0.163199
-0.113315
-0.113927
-0.118923
-0.129331
-0.14449
-0.164022
-0.186966
-0.211849
-0.237162
-0.261748
-0.28496
-0.30659
-0.32668
-0.345344
-0.362662
-0.378658
-0.39331
-0.40658
-0.41843
-0.428832
-0.437764
-0.44521
-0.451158
-0.455602
-0.458534
-0.459943
-0.45987
-0.458338
-0.4553
-0.450791
-0.444837
-0.437468
-0.428726
-0.418656
-0.407312
-0.394755
-0.381051
-0.366274
-0.350515
-0.3339
-0.316617
-0.298954
-0.281302
-0.264015
-0.246948
-0.2285
-0.205908
-0.181472
-0.168621
-0.169845
-0.114587
-0.114698
-0.119041
-0.128951
-0.143622
-0.162602
-0.185012
-0.209471
-0.234513
-0.25897
-0.282148
-0.30379
-0.323904
-0.342593
-0.359939
-0.375972
-0.390676
-0.404015
-0.415949
-0.426442
-0.435467
-0.443002
-0.44903
-0.45354
-0.456523
-0.457971
-0.457899
-0.456348
-0.45326
-0.448676
-0.442626
-0.435139
-0.42626
-0.416044
-0.404554
-0.391864
-0.378056
-0.363214
-0.347438
-0.330865
-0.313699
-0.296239
-0.278902
-0.262123
-0.246034
-0.229546
-0.209818
-0.18722
-0.173875
-0.174376
-0.11446
-0.114107
-0.1177
-0.126941
-0.141003
-0.159336
-0.181128
-0.205101
-0.229843
-0.254176
-0.277354
-0.299056
-0.319247
-0.338008
-0.355424
-0.371533
-0.386327
-0.399772
-0.411825
-0.422445
-0.431597
-0.439253
-0.445389
-0.449988
-0.45304
-0.454532
-0.454468
-0.452896
-0.449751
-0.445074
-0.438903
-0.431269
-0.422219
-0.411813
-0.400123
-0.387227
-0.373216
-0.358192
-0.342276
-0.325631
-0.308472
-0.291111
-0.273984
-0.257582
-0.24223
-0.227294
-0.210193
-0.189781
-0.176558
-0.176425
-0.11316
-0.112415
-0.115198
-0.123575
-0.13686
-0.154414
-0.175465
-0.198841
-0.223206
-0.24738
-0.27056
-0.292354
-0.312667
-0.331551
-0.349086
-0.365317
-0.380245
-0.393839
-0.406053
-0.416842
-0.426162
-0.433976
-0.440254
-0.444972
-0.448112
-0.449662
-0.449612
-0.448019
-0.44481
-0.440026
-0.433709
-0.425893
-0.416628
-0.405977
-0.394019
-0.38084
-0.366542
-0.351237
-0.335064
-0.318201
-0.300897
-0.283497
-0.266461
-0.250305
-0.23549
-0.221735
-0.206932
-0.188847
-0.1763
-0.175669
-0.110953
-0.109913
-0.111871
-0.11919
-0.131483
-0.148078
-0.168217
-0.190833
-0.214683
-0.238607
-0.261751
-0.283642
-0.304112
-0.32317
-0.340879
-0.357286
-0.372399
-0.386192
-0.398618
-0.409624
-0.419157
-0.427173
-0.433633
-0.438503
-0.44176
-0.443387
-0.443368
-0.441753
-0.43848
-0.433578
-0.427092
-0.41906
-0.409535
-0.398582
-0.386285
-0.37274
-0.358053
-0.342354
-0.325795
-0.308581
-0.290985
-0.273386
-0.256284
-0.240231
-0.225769
-0.21287
-0.199997
-0.184211
-0.172779
-0.171808
-0.108113
-0.106892
-0.108062
-0.114158
-0.125211
-0.140614
-0.15962
-0.181256
-0.204389
-0.227907
-0.250923
-0.27288
-0.293525
-0.312804
-0.330748
-0.347396
-0.362758
-0.376811
-0.389506
-0.400785
-0.410587
-0.418856
-0.425542
-0.430606
-0.434015
-0.435745
-0.435779
-0.434149
-0.430814
-0.425785
-0.41911
-0.410832
-0.401002
-0.38969
-0.376983
-0.362981
-0.347802
-0.331584
-0.314502
-0.296783
-0.278735
-0.260777
-0.243452
-0.227351
-0.213064
-0.20072
-0.189394
-0.17575
-0.165707
-0.16456
-0.104908
-0.103619
-0.10409
-0.108859
-0.11842
-0.132352
-0.149948
-0.170325
-0.192473
-0.215357
-0.238086
-0.26003
-0.280839
-0.300377
-0.318623
-0.33559
-0.351281
-0.36567
-0.378708
-0.390328
-0.400463
-0.409044
-0.416013
-0.421318
-0.42492
-0.426787
-0.426898
-0.425269
-0.421878
-0.41672
-0.40984
-0.401286
-0.39111
-0.379383
-0.366191
-0.351642
-0.33586
-0.318997
-0.301245
-0.282862
-0.264193
-0.245702
-0.227986
-0.211684
-0.197428
-0.185354
-0.17518
-0.163422
-0.154836
-0.15365
-0.101572
-0.10031
-0.100214
-0.103646
-0.111504
-0.123658
-0.139514
-0.158292
-0.179116
-0.201063
-0.223272
-0.245062
-0.265984
-0.285802
-0.304416
-0.321794
-0.337912
-0.352736
-0.366208
-0.378256
-0.388801
-0.397767
-0.405083
-0.410688
-0.414532
-0.416577
-0.416796
-0.415191
-0.411756
-0.406469
-0.399374
-0.39052
-0.379959
-0.367759
-0.354011
-0.338823
-0.322326
-0.304687
-0.28612
-0.26691
-0.247449
-0.228252
-0.209973
-0.193303
-0.178931
-0.166916
-0.157482
-0.147266
-0.139973
-0.138818
-0.0982897
-0.0971227
-0.0966219
-0.098809
-0.104837
-0.114913
-0.128656
-0.145436
-0.164534
-0.185166
-0.206544
-0.227966
-0.248896
-0.268983
-0.288026
-0.305914
-0.32258
-0.337961
-0.351984
-0.364567
-0.375621
-0.38506
-0.392801
-0.398774
-0.402921
-0.405194
-0.40556
-0.40401
-0.400548
-0.395139
-0.387823
-0.378648
-0.367666
-0.354942
-0.340567
-0.32465
-0.307331
-0.288789
-0.269262
-0.249071
-0.228654
-0.208585
-0.189576
-0.172375
-0.157704
-0.145611
-0.136495
-0.127401
-0.121017
-0.119832
-0.0951904
-0.0941587
-0.0934207
-0.0945476
-0.0987378
-0.106495
-0.117734
-0.132065
-0.14897
-0.167842
-0.188003
-0.208769
-0.229538
-0.249839
-0.269348
-0.287848
-0.305197
-0.321282
-0.336002
-0.349255
-0.360942
-0.370961
-0.379224
-0.385649
-0.390168
-0.392728
-0.39329
-0.391832
-0.388368
-0.382851
-0.375313
-0.365804
-0.35437
-0.341077
-0.32601
-0.309282
-0.291041
-0.27148
-0.250863
-0.22955
-0.208031
-0.186938
-0.167048
-0.149156
-0.134011
-0.121669
-0.112477
-0.104009
-0.0979537
-0.0964535
-0.0923516
-0.0914736
-0.0906506
-0.0909611
-0.0934314
-0.0987276
-0.107099
-0.118498
-0.132693
-0.149303
-0.167799
-0.187554
-0.207924
-0.22833
-0.248306
-0.267505
-0.285675
-0.302631
-0.318219
-0.332307
-0.344775
-0.35551
-0.364409
-0.371386
-0.376363
-0.379282
-0.380098
-0.378781
-0.375344
-0.36974
-0.36199
-0.352138
-0.340232
-0.326332
-0.310522
-0.292918
-0.273673
-0.253
-0.231187
-0.208639
-0.185897
-0.163658
-0.142753
-0.124018
-0.10822
-0.0953746
-0.0857813
-0.0773123
-0.0708316
-0.0683394
-0.0898055
-0.0890898
-0.0883037
-0.0880545
-0.0890181
-0.091834
-0.0970464
-0.10504
-0.115984
-0.129794
-0.146138
-0.164478
-0.184157
-0.204499
-0.224896
-0.244847
-0.263967
-0.28196
-0.298603
-0.313712
-0.327136
-0.338742
-0.348418
-0.356065
-0.361602
-0.364964
-0.366103
-0.364986
-0.361615
-0.355955
-0.348011
-0.337823
-0.325438
-0.310912
-0.29433
-0.275808
-0.25551
-0.233665
-0.210594
-0.18674
-0.162697
-0.139219
-0.117186
-0.0974588
-0.0807984
-0.0671419
-0.0568323
-0.047575
-0.0398508
-0.0350878
-0.0875436
-0.087003
-0.0863438
-0.0857568
-0.0854598
-0.0858807
-0.0877553
-0.0919408
-0.099115
-0.109593
-0.123293
-0.139798
-0.15846
-0.178525
-0.199245
-0.219957
-0.240116
-0.259298
-0.277176
-0.293497
-0.308065
-0.320717
-0.331324
-0.339777
-0.345991
-0.349895
-0.35144
-0.35059
-0.347339
-0.341667
-0.333562
-0.323061
-0.310211
-0.295069
-0.277717
-0.258278
-0.236925
-0.213906
-0.189568
-0.164394
-0.139023
-0.11425
-0.0909837
-0.0700921
-0.0523091
-0.0374936
-0.0260943
-0.015122
-0.0056472
0.00336255
-0.0855095
-0.0851742
-0.0847112
-0.0839367
-0.0825777
-0.0807382
-0.0792233
-0.0793329
-0.082324
-0.089005
-0.0996156
-0.113895
-0.131222
-0.150777
-0.171681
-0.193108
-0.214347
-0.234822
-0.254084
-0.271791
-0.287681
-0.301553
-0.313252
-0.322656
-0.329673
-0.334229
-0.336274
-0.335771
-0.332709
-0.327083
-0.318872
-0.308107
-0.29484
-0.279128
-0.261058
-0.240758
-0.218412
-0.194286
-0.168751
-0.142315
-0.115644
-0.0895465
-0.0649277
-0.0426288
-0.0233379
-0.00687193
0.00620331
0.0199532
0.0309404
0.0468262
-0.0835828
-0.0835074
-0.0832984
-0.0823911
-0.0800548
-0.0760679
-0.0712246
-0.0671849
-0.0657786
-0.0683625
-0.0755601
-0.0873072
-0.103032
-0.12186
-0.142792
-0.164846
-0.187146
-0.208956
-0.229694
-0.24891
-0.266264
-0.281504
-0.29444
-0.304932
-0.312877
-0.318198
-0.320844
-0.32078
-0.317991
-0.312488
-0.304248
-0.293303
-0.279705
-0.26352
-0.244843
-0.223807
-0.200611
-0.175531
-0.148953
-0.12139
-0.093501
-0.0660658
-0.0399335
-0.0158663
0.00553622
0.0245146
0.0404716
0.0584562
0.0708597
0.0973923
-0.0815705
-0.0818208
-0.0818982
-0.0808026
-0.0774326
-0.0713491
-0.0633291
-0.0552967
-0.0495666
-0.0480228
-0.0516984
-0.0607633
-0.0747204
-0.0926572
-0.113471
-0.136038
-0.159324
-0.182442
-0.204671
-0.225447
-0.244345
-0.261047
-0.275324
-0.28701
-0.295987
-0.302174
-0.305519
-0.305991
-0.303574
-0.298284
-0.290121
-0.279112
-0.265316
-0.248812
-0.229702
-0.208132
-0.184309
-0.158514
-0.131126
-0.102633
-0.0736418
-0.0448466
-0.0169753
0.00935711
0.0337165
0.0565308
0.077407
0.102185
0.119246
0.16238
-0.0792611
-0.0798651
-0.0802251
-0.0787768
-0.0741739
-0.065971
-0.0550145
-0.0433899
-0.0337486
-0.0283961
-0.0287421
-0.0352017
-0.0473794
-0.0643523
-0.0849377
-0.107893
-0.132047
-0.156374
-0.180024
-0.202323
-0.222755
-0.240937
-0.256591
-0.26952
-0.279592
-0.286716
-0.29084
-0.291935
-0.289992
-0.285024
-0.277058
-0.26613
-0.25231
-0.23569
-0.216383
-0.194545
-0.170382
-0.144166
-0.116244
-0.0870406
-0.0570547
-0.0268277
0.00311022
0.0323744
0.0607844
0.0890884
0.117292
0.152487
0.182319
0.247103
-0.0767609
-0.0776036
-0.0780907
-0.0760346
-0.0699818
-0.0595651
-0.0459269
-0.0313163
-0.018493
-0.0100062
-0.00754982
-0.011752
-0.0223298
-0.038382
-0.0586837
-0.0819091
-0.10678
-0.132156
-0.157076
-0.180767
-0.202629
-0.222215
-0.239198
-0.253349
-0.264515
-0.272598
-0.277542
-0.279324
-0.277943
-0.273416
-0.265781
-0.255085
-0.241421
-0.224902
-0.205651
-0.183822
-0.159611
-0.133259
-0.105053
-0.0753164
-0.0443869
-0.0125762
0.0198911
0.0530108
0.0870285
0.123136
0.161648
0.211326
0.258882
0.337541
-0.0753545
-0.0760437
-0.0761572
-0.0729203
-0.0650377
-0.0524003
-0.0363566
-0.0194137
-0.00433985
0.00637472
0.0108446
0.00829845
-0.00105746
-0.01636
-0.0363862
-0.0597726
-0.0851751
-0.111373
-0.137324
-0.162174
-0.185256
-0.206063
-0.224225
-0.239483
-0.251663
-0.260656
-0.266406
-0.268889
-0.268116
-0.264117
-0.256946
-0.246646
-0.233299
-0.217044
-0.198027
-0.176403
-0.152341
-0.126036
-0.0976946
-0.067511
-0.0356211
-0.00202767
0.0335044
0.0716448
0.113563
0.161593
0.216806
0.287968
0.348405
0.423454
-0.0795396
-0.0788276
-0.0772004
-0.0715782
-0.0610317
-0.0458128
-0.0275285
-0.00877674
0.00767212
0.0196163
0.0253017
0.0237393
0.0151222
0.00029129
-0.0195547
-0.0430502
-0.0688234
-0.0956099
-0.122314
-0.14803
-0.17204
-0.193792
-0.212884
-0.229029
-0.242037
-0.251791
-0.258227
-0.261328
-0.261106
-0.257601
-0.250873
-0.241011
-0.22809
-0.212187
-0.193453
-0.172063
-0.148174
-0.121936
-0.0934729
-0.0628432
-0.0299572
0.00555427
0.0445441
0.0887305
0.141037
0.206692
0.290501
0.402491
0.494858
0.602527
-0.102963
-0.0951243
-0.0866584
-0.0758605
-0.0615028
-0.0431974
-0.0225905
-0.00225495
0.0153711
0.028085
0.0342103
0.0330692
0.0248584
0.0103703
-0.00924143
-0.0326452
-0.0584845
-0.0854908
-0.112549
-0.138725
-0.163268
-0.185598
-0.205284
-0.222019
-0.235596
-0.245886
-0.252823
-0.256383
-0.256582
-0.253459
-0.24708
-0.237528
-0.224897
-0.209295
-0.190844
-0.169676
-0.145934
-0.119739
-0.0911496
-0.060097
-0.0262746
0.0110657
0.0534436
0.103785
0.167226
0.253269
0.374604
0.554762
0.766871
1.10716
-0.189779
-0.112005
-0.0803997
-0.071164
-0.057895
-0.0385524
-0.0169085
0.00402904
0.0217609
0.0341232
0.0397221
0.0380821
0.0294799
0.0147368
-0.00500087
-0.028438
-0.0542635
-0.0812478
-0.108302
-0.134507
-0.159117
-0.181549
-0.201367
-0.218257
-0.232006
-0.242478
-0.249602
-0.253352
-0.25374
-0.250805
-0.244612
-0.235242
-0.222793
-0.207369
-0.189089
-0.168077
-0.144463
-0.118337
-0.0897012
-0.0583906
-0.0239338
0.0146982
0.0595029
0.114229
0.185444
0.285503
0.434308
0.679499
1.07867
1.82798
)
;

boundaryField
{
    movingWall
    {
        type            zeroGradient;
    }
    fixedWalls
    {
        type            zeroGradient;
    }
    frontAndBack
    {
        type            empty;
    }
}


// ************************************************************************* //
