/*--------------------------------*- C++ -*----------------------------------*\
  =========                 |
  \\      /  F ield         | OpenFOAM: The Open Source CFD Toolbox
   \\    /   O peration     | Website:  https://openfoam.org
    \\  /    A nd           | Version:  7
     \\/     M anipulation  |
\*---------------------------------------------------------------------------*/
FoamFile
{
    version     2.0;
    format      ascii;
    class       surfaceScalarField;
    location    "400";
    object      phi;
}
// * * * * * * * * * * * * * * * * * * * * * * * * * * * * * * * * * * * * * //

dimensions      [0 3 -1 0 0 0 0];

internalField   nonuniform List<scalar> 
4900
(
1.70162e-06
-1.70825e-06
6.23117e-06
-4.52923e-06
1.17262e-05
-5.49646e-06
1.6512e-05
-4.7876e-06
1.97575e-05
-3.24709e-06
2.1394e-05
-1.63771e-06
2.17695e-05
-3.76659e-07
2.12605e-05
5.08125e-07
2.00089e-05
1.25071e-06
1.78493e-05
2.15872e-06
1.43874e-05
3.46113e-06
9.13511e-06
5.25148e-06
1.60038e-06
7.534e-06
-8.66995e-06
1.02697e-05
-2.20263e-05
1.33557e-05
-3.86321e-05
1.66052e-05
-5.83921e-05
1.97595e-05
-8.08709e-05
2.24784e-05
-0.00010523
2.43584e-05
-0.000130211
2.49807e-05
-0.000154185
2.39742e-05
-0.000175265
2.10793e-05
-0.000191465
1.62001e-05
-0.000200908
9.44262e-06
-0.000202068
1.15947e-06
-0.000193998
-8.07032e-06
-0.000176448
-1.75505e-05
-0.000149933
-2.6515e-05
-0.000115742
-3.41908e-05
-7.58973e-05
-3.98452e-05
-3.30468e-05
-4.28508e-05
9.69531e-06
-4.27423e-05
4.90673e-05
-3.93722e-05
8.2208e-05
-3.3141e-05
0.000106933
-2.47249e-05
0.000121965
-1.50329e-05
0.00012718
-5.21444e-06
0.000123646
3.53359e-06
0.000113356
1.02896e-05
9.87011e-05
1.46547e-05
8.20274e-05
1.66736e-05
6.52777e-05
1.67495e-05
4.98038e-05
1.54737e-05
3.63451e-05
1.34585e-05
2.51332e-05
1.12117e-05
1.6063e-05
9.07003e-06
8.90915e-06
7.15363e-06
3.60313e-06
5.30581e-06
5.08169e-07
3.09477e-06
5.08128e-07
4.4801e-06
-6.18711e-06
1.38593e-05
-1.39104e-05
2.43217e-05
-1.59628e-05
3.2905e-05
-1.33749e-05
3.79981e-05
-8.34378e-06
3.92116e-05
-2.85429e-06
3.68274e-05
2.00495e-06
3.11505e-05
6.18258e-06
2.20702e-05
1.03288e-05
8.9551e-06
1.52716e-05
-9.19498e-06
2.16091e-05
-3.34831e-05
2.95377e-05
-6.48099e-05
3.88591e-05
-0.000103615
4.9073e-05
-0.000149666
5.94055e-05
-0.000201899
6.88374e-05
-0.000258363
7.62221e-05
-0.000316341
8.04557e-05
-0.000372632
8.06484e-05
-0.000423896
7.62445e-05
-0.000466995
6.70721e-05
-0.000499248
5.33317e-05
-0.000518601
3.55525e-05
-0.000523711
1.45525e-05
-0.000514033
-8.51929e-06
-0.000489659
-3.24449e-05
-0.000451223
-5.59863e-05
-0.000399926
-7.78129e-05
-0.000337591
-9.65266e-05
-0.000266687
-0.000110749
-0.000190302
-0.000119236
-0.000112009
-0.000121035
-3.56901e-05
-0.000115692
3.45813e-05
-0.000103413
9.51025e-05
-8.52467e-05
0.000143051
-6.29824e-05
0.000176497
-3.86604e-05
0.00019464
-1.46102e-05
0.000198062
6.86741e-06
0.000188848
2.38677e-05
0.000170142
3.53794e-05
0.000145533
4.13578e-05
0.000118435
4.25718e-05
9.16184e-05
4.02745e-05
6.6958e-05
3.58716e-05
4.54474e-05
3.05802e-05
2.74817e-05
2.51188e-05
1.33489e-05
1.94382e-05
3.76059e-06
1.26826e-05
4.26867e-06
5.99151e-06
-1.21787e-05
1.73429e-05
-2.52629e-05
2.88009e-05
-2.74235e-05
3.68072e-05
-2.13844e-05
3.9501e-05
-1.10407e-05
3.62939e-05
3.49933e-07
2.71215e-05
1.11747e-05
1.17732e-05
2.15285e-05
-1.05205e-05
3.26203e-05
-4.10407e-05
4.57897e-05
-8.11483e-05
6.17151e-05
-0.000131765
8.01533e-05
-0.000192952
0.000100045
-0.000263597
0.000119716
-0.000341342
0.00013715
-0.000422823
0.000150317
-0.000504115
0.000157513
-0.000581262
0.000157602
-0.000650718
0.000150105
-0.000709625
0.000135151
-0.000755903
0.000113349
-0.000788202
8.56298e-05
-0.000805763
5.31133e-05
-0.00080824
1.70291e-05
-0.000795502
-2.12575e-05
-0.000767565
-6.03821e-05
-0.000724738
-9.88142e-05
-0.000667748
-0.000134803
-0.00059783
-0.000166446
-0.000516821
-0.000191759
-0.000427237
-0.000208821
-0.000332269
-0.000216004
-0.000235698
-0.000212263
-0.00014166
-0.000197451
-5.43861e-05
-0.000172521
2.21523e-05
-0.000139521
8.49703e-05
-0.000101479
0.000132271
-6.19118e-05
0.000163085
-2.39464e-05
0.000177546
9.40579e-06
0.000177183
3.5742e-05
0.000164791
5.37497e-05
0.000143914
6.34481e-05
0.000118235
6.59532e-05
9.10173e-05
6.30888e-05
6.47409e-05
5.68561e-05
4.10708e-05
4.87884e-05
2.12138e-05
3.92947e-05
6.61007e-06
2.72859e-05
1.08787e-05
6.50999e-06
-1.86882e-05
1.75918e-05
-3.63458e-05
2.69293e-05
-3.67632e-05
3.07086e-05
-2.51663e-05
2.71245e-05
-7.45949e-06
1.5483e-05
1.19888e-05
-4.75496e-06
3.14102e-05
-3.46082e-05
5.13796e-05
-7.56034e-05
7.36137e-05
-0.000129217
9.94016e-05
-0.000196173
0.00012867
-0.000275881
0.00015986
-0.000366201
0.000190363
-0.00046363
0.000217145
-0.000563846
0.000237365
-0.000662395
0.000248865
-0.000755301
0.000250419
-0.000839431
0.000241732
-0.000912585
0.000223258
-0.000973369
0.000195935
-0.00102097
0.000160947
-0.0010549
0.000119558
-0.00107481
7.30311e-05
-0.00108041
2.26208e-05
-0.00107128
-3.03785e-05
-0.00104714
-8.45233e-05
-0.00100783
-0.000138131
-0.000953399
-0.000189231
-0.000884268
-0.000235578
-0.000801354
-0.000274673
-0.000706279
-0.000303896
-0.000601522
-0.000320761
-0.000490494
-0.000323291
-0.000377462
-0.000310483
-0.000267258
-0.000282726
-0.00016474
-0.00024204
-7.4231e-05
-0.000191988
9.8063e-07
-0.000137124
5.93096e-05
-8.22759e-05
0.000100451
-3.17364e-05
0.000124661
1.15322e-05
0.000133221
4.51891e-05
0.000128631
6.80377e-05
0.000114183
8.04006e-05
9.34587e-05
8.38125e-05
6.9822e-05
8.04924e-05
4.6093e-05
7.25169e-05
2.46271e-05
6.07602e-05
7.92596e-06
4.39866e-05
1.88046e-05
6.20147e-06
-2.489e-05
1.48738e-05
-4.50193e-05
1.9153e-05
-4.10442e-05
1.53802e-05
-2.13959e-05
2.00941e-06
5.90876e-06
-2.18465e-05
3.58423e-05
-5.73689e-05
6.69306e-05
-0.000106287
0.000100296
-0.000170222
0.000137547
-0.000249726
0.000178904
-0.000343599
0.000222542
-0.000448805
0.000265065
-0.000560947
0.000302505
-0.000675073
0.00033127
-0.000786504
0.000348796
-0.000891427
0.000353787
-0.000987123
0.000346114
-0.00107189
0.000326499
-0.00114479
0.000296153
-0.00120534
0.000256486
-0.00125331
0.000208921
-0.00128857
0.000154813
-0.00131097
9.54353e-05
-0.00132037
3.20131e-05
-0.00131648
-3.42682e-05
-0.00129894
-0.000102058
-0.00126728
-0.000169794
-0.00122092
-0.000235594
-0.00115932
-0.000297179
-0.00108218
-0.000351811
-0.000989731
-0.000396343
-0.000883068
-0.000427424
-0.000764468
-0.000441892
-0.000637615
-0.000437337
-0.000507563
-0.000412778
-0.000380338
-0.000369266
-0.000262146
-0.00031018
-0.000158299
-0.000240971
-7.23385e-05
-0.000168237
-5.72008e-06
-9.83553e-05
4.20905e-05
-3.62789e-05
7.23418e-05
1.49374e-05
8.66354e-05
5.37436e-05
8.74945e-05
7.95411e-05
7.81245e-05
9.31821e-05
6.20358e-05
9.65806e-05
4.269e-05
9.18624e-05
2.33837e-05
8.0066e-05
7.59547e-06
5.97745e-05
2.64e-05
4.88705e-06
-2.97773e-05
8.83687e-06
-4.89705e-05
5.19942e-06
-3.74086e-05
-9.07177e-06
-7.12683e-06
-3.53221e-05
3.2157e-05
-7.47175e-05
7.52359e-05
-0.000128979
0.00012119
-0.00019985
0.000171166
-0.000287876
0.000225572
-0.000391512
0.00028254
-0.000507092
0.000338121
-0.000629537
0.00038751
-0.00075339
0.000426358
-0.000873746
0.000451626
-0.000986812
0.000461862
-0.00109004
0.000457018
-0.00118197
0.000438042
-0.00126191
0.000406434
-0.00132967
0.000363916
-0.0013854
0.000312215
-0.00142943
0.000252946
-0.00146217
0.00018756
-0.00148407
0.000117329
-0.00149543
4.33744e-05
-0.00149636
-3.33383e-05
-0.00148662
-0.000111794
-0.0014656
-0.000190819
-0.00143224
-0.000268953
-0.00138515
-0.000344267
-0.00132276
-0.000414199
-0.00124362
-0.000475489
-0.00114681
-0.000524236
-0.00103252
-0.000556181
-0.000902599
-0.000567254
-0.000761
-0.000554376
-0.000613833
-0.000516433
-0.000468873
-0.00045514
-0.000334382
-0.000375463
-0.000217438
-0.000285181
-0.000122371
-0.000193422
-5.01598e-05
-0.000108491
8.20873e-07
-3.60437e-05
3.31743e-05
2.13897e-05
4.9454e-05
6.3261e-05
5.26166e-05
9.0019e-05
4.60741e-05
0.000103123
3.35282e-05
0.000104408
1.88397e-05
9.47541e-05
6.10307e-06
7.25107e-05
3.2503e-05
2.25359e-06
-3.20315e-05
-9.82629e-07
-4.57358e-05
-1.51342e-05
-2.32587e-05
-4.23891e-05
2.01263e-05
-8.39317e-05
7.3698e-05
-0.000141198
0.000132501
-0.000215883
0.000195874
-0.00030865
0.000263932
-0.000417941
0.000334862
-0.000539788
0.000404386
-0.000668627
0.00046696
-0.000798519
0.000517401
-0.000924196
0.000552035
-0.00104165
0.000569082
-0.00114825
0.000568459
-0.00124253
0.0005513
-0.00132394
0.000519445
-0.00139255
0.000475053
-0.00144897
0.000420329
-0.0014941
0.000357343
-0.00152906
0.000287915
-0.00155504
0.00021354
-0.0015731
0.000135381
-0.00158404
5.4318e-05
-0.00158836
-2.90159e-05
-0.00158607
-0.000114084
-0.00157664
-0.000200252
-0.00155889
-0.000286704
-0.00153099
-0.000372169
-0.00149049
-0.000454697
-0.00143452
-0.000531455
-0.00136015
-0.000598606
-0.00126498
-0.000651355
-0.00114794
-0.00068429
-0.00101022
-0.000692104
-0.00085595
-0.0006707
-0.000692533
-0.000618557
-0.000529997
-0.000537999
-0.000379359
-0.00043582
-0.000250114
-0.000322667
-0.000147768
-0.000210837
-7.28108e-05
-0.000111002
-2.19544e-05
-2.94671e-05
9.12319e-06
3.21829e-05
2.42838e-05
7.4858e-05
2.73106e-05
0.000100095
2.21597e-05
0.000109558
1.30098e-05
0.000103904
4.20128e-06
8.13189e-05
3.67043e-05
-1.94863e-06
-3.00834e-05
-1.47452e-05
-3.29408e-05
-4.14864e-05
3.48077e-06
-8.34582e-05
6.20967e-05
-0.000141673
0.000131911
-0.000217524
0.000208351
-0.00031178
0.00029013
-0.000423137
0.000375288
-0.000547678
0.000459402
-0.00067958
0.000536288
-0.000812451
0.00059983
-0.000940533
0.000645482
-0.00105939
0.000670896
-0.0011661
0.000675783
-0.00125903
0.000661394
-0.00133768
0.00062995
-0.00140239
0.000584155
-0.00145418
0.000526844
-0.00149456
0.000460703
-0.00152529
0.000388073
-0.0015482
0.000310831
-0.00156501
0.000230349
-0.00157716
0.000147532
-0.00158576
6.29134e-05
-0.00159153
-2.32478e-05
-0.00159474
-0.000110877
-0.00159512
-0.000199865
-0.00159178
-0.000290044
-0.00158305
-0.000380906
-0.00156637
-0.000471377
-0.00153829
-0.000559534
-0.00149459
-0.000642308
-0.00143069
-0.000715256
-0.00134243
-0.000772548
-0.0012272
-0.000807336
-0.00108523
-0.000812667
-0.000920799
-0.00078299
-0.000742735
-0.000716062
-0.000563769
-0.000614786
-0.000398268
-0.000488168
-0.000258641
-0.000350464
-0.00015169
-0.000217953
-7.70945e-05
-0.000104063
-2.94107e-05
-1.55013e-05
-2.21244e-06
4.76593e-05
9.87399e-06
8.80086e-05
1.16662e-05
0.000107766
7.75843e-06
0.000107811
2.59087e-06
8.64861e-05
3.92951e-05
-7.78502e-06
-2.22991e-05
-3.20067e-05
-8.72069e-06
-7.26784e-05
4.41511e-05
-0.000130052
0.000119469
-0.000204946
0.000206804
-0.000298078
0.000301482
-0.000408535
0.000400585
-0.000532783
0.000499536
-0.00066503
0.000591649
-0.000798538
0.000669795
-0.000927
0.000728291
-0.00104541
0.000763896
-0.00115038
0.000775864
-0.00124004
0.00076544
-0.00131385
0.000735205
-0.00137239
0.000688484
-0.00141709
0.000628857
-0.00144999
0.000559751
-0.00147344
0.000484144
-0.00148975
0.000404383
-0.00150105
0.000322134
-0.00150914
0.000238437
-0.00151544
0.000153829
-0.001521
6.84756e-05
-0.00152655
-1.76912e-05
-0.00153252
-0.000104912
-0.00153895
-0.000193435
-0.00154546
-0.000283531
-0.00155106
-0.000375308
-0.00155389
-0.000468548
-0.00155099
-0.000562436
-0.00153811
-0.000655185
-0.00150978
-0.000743588
-0.00145971
-0.000822618
-0.00138178
-0.000885269
-0.00127152
-0.000922925
-0.001128
-0.000926512
-0.000955532
-0.000888526
-0.000764609
-0.000805709
-0.00057109
-0.000681688
-0.000393185
-0.00052837
-0.000246438
-0.000364699
-0.000138624
-0.000211877
-6.78814e-05
-8.62446e-05
-2.60273e-05
5.80483e-06
-4.40262e-06
6.63836e-05
3.81366e-06
9.9549e-05
4.25417e-06
0.00010737
1.7068e-06
8.90332e-05
4.10019e-05
-1.49802e-05
-7.31941e-06
-5.17798e-05
2.80775e-05
-0.000106668
9.90385e-05
-0.000178964
0.000191765
-0.00026901
0.000296849
-0.000376243
0.000408715
-0.000497775
0.000522116
-0.000628187
0.000629948
-0.000760617
0.000724078
-0.00088825
0.000797428
-0.00100544
0.000845479
-0.00110821
0.000866668
-0.00119434
0.000861992
-0.00126319
0.000834295
-0.00131553
0.000787537
-0.00135317
0.00072613
-0.00137868
0.000654361
-0.00139487
0.000575945
-0.00140449
0.000493766
-0.00140992
0.000409813
-0.00141306
0.00032527
-0.00141532
0.000240702
-0.00141774
0.000156241
-0.00142101
7.17505e-05
-0.00142566
-1.3043e-05
-0.00143207
-9.84996e-05
-0.00144052
-0.000184988
-0.00145113
-0.000272917
-0.00146375
-0.000362696
-0.00147763
-0.000454667
-0.00149112
-0.000548941
-0.00150122
-0.000645086
-0.00150319
-0.000741621
-0.00149045
-0.00083536
-0.00145498
-0.000920732
-0.00138852
-0.000989391
-0.00128448
-0.00103055
-0.00114058
-0.00103243
-0.000961232
-0.000985055
-0.000758928
-0.000883992
-0.000553208
-0.000734091
-0.000366524
-0.000551384
-0.000217365
-0.000361036
-0.0001135
-0.00019011
-5.03091e-05
-5.73863e-05
-1.64207e-05
3.24949e-05
-1.33923e-06
8.44672e-05
2.72497e-06
0.000103306
1.64208e-06
9.01157e-05
4.26439e-05
-2.30331e-05
1.57131e-05
-7.25491e-05
7.75924e-05
-0.000140858
0.000167347
-0.000226436
0.000277342
-0.000328745
0.000399157
-0.000445636
0.000525606
-0.000572422
0.000648902
-0.000702457
0.000759982
-0.000828587
0.000850208
-0.000944519
0.000913359
-0.00104561
0.000946573
-0.00112915
0.000950205
-0.00119429
0.00092713
-0.00124186
0.000881865
-0.00127403
0.000819702
-0.0012938
0.0007459
-0.00130448
0.000665044
-0.00130919
0.000580653
-0.0013105
0.000495082
-0.00131035
0.000409653
-0.00130999
0.000324917
-0.00131022
0.000240933
-0.00131148
0.000157501
-0.00131404
7.4305e-05
-0.00131809
-8.99222e-06
-0.00132388
-9.27102e-05
-0.00133172
-0.000177148
-0.00134202
-0.000262619
-0.00135519
-0.000349518
-0.00137152
-0.000438341
-0.0013908
-0.000529665
-0.00141188
-0.000624004
-0.00143205
-0.000721454
-0.00144636
-0.000821041
-0.00144733
-0.000919769
-0.00142517
-0.00101155
-0.00136928
-0.00108644
-0.00127076
-0.00113095
-0.00112591
-0.0011299
-0.000939571
-0.00107033
-0.00072688
-0.000946782
-0.000511803
-0.000766461
-0.000321293
-0.000551546
-0.000175956
-0.000335447
-8.17287e-05
-0.000151614
-2.96993e-05
-1.95348e-05
-5.4444e-06
6.02119e-05
2.46863e-06
9.53921e-05
2.17459e-06
9.04095e-05
4.48184e-05
-3.11992e-05
4.6912e-05
-9.25006e-05
0.000138893
-0.000172511
0.000247356
-0.000268744
0.000373575
-0.000379524
0.000509937
-0.000501147
0.000647229
-0.000627606
0.000775361
-0.000751724
0.0008841
-0.00086667
0.000965153
-0.000967079
0.00101377
-0.00104959
0.00102908
-0.00111296
0.00101358
-0.00115794
0.000972101
-0.00118685
0.000910784
-0.00120311
0.000835959
-0.00121046
0.000753248
-0.00121238
0.000666967
-0.00121168
0.000579946
-0.00121028
0.000493684
-0.00120933
0.000408708
-0.00120937
0.000324957
-0.00121055
0.000242106
-0.00121281
0.000159763
-0.00121607
7.75679e-05
-0.0012203
-4.76569e-06
-0.00122557
-8.74437e-05
-0.00123209
-0.00017062
-0.00124029
-0.000254428
-0.00125073
-0.000339078
-0.00126415
-0.000424916
-0.00128131
-0.000512505
-0.00130265
-0.000602662
-0.00132774
-0.000696363
-0.00135441
-0.00079437
-0.00137778
-0.000896401
-0.00138954
-0.000999791
-0.00137811
-0.00109787
-0.00133035
-0.00117871
-0.00123492
-0.00122533
-0.00108692
-0.00121833
-0.000892315
-0.00114139
-0.00067001
-0.000988766
-0.000449352
-0.000772205
-0.000261683
-0.000523116
-0.000127869
-0.000285428
-4.9235e-05
-9.81689e-05
-1.13324e-05
2.2309e-05
2.12857e-06
8.1931e-05
2.87158e-06
8.96661e-05
4.769e-05
-3.86035e-05
8.55151e-05
-0.000109907
0.000210196
-0.000199145
0.000336593
-0.000302758
0.000477188
-0.000417871
0.000625049
-0.000539511
0.000768868
-0.00066093
0.00089678
-0.00077502
0.00099819
-0.000875719
0.00106585
-0.000958884
0.00109693
-0.00102265
0.00109285
-0.00106739
0.00105832
-0.00109543
0.00100014
-0.00111038
0.000925733
-0.00111637
0.000841944
-0.00111725
0.000754127
-0.00111606
0.000665784
-0.00111483
0.000578714
-0.00111461
0.000493462
-0.00111574
0.000409844
-0.00111816
0.000327374
-0.00112159
0.000245538
-0.00112575
0.000163917
-0.00113039
8.22119e-05
-0.00113539
2.37402e-07
-0.00114073
-8.21026e-05
-0.00114651
-0.00016484
-0.00115297
-0.000247972
-0.00116053
-0.00033152
-0.00116985
-0.000415591
-0.00118189
-0.000500469
-0.00119779
-0.000586757
-0.00121866
-0.000675495
-0.00124487
-0.00076816
-0.00127499
-0.000866287
-0.00130433
-0.000970444
-0.00132383
-0.00107837
-0.00131994
-0.0011826
-0.00127678
-0.0012685
-0.00118057
-0.00131454
-0.00102585
-0.00129612
-0.000821004
-0.00119361
-0.000590384
-0.00100282
-0.000369703
-0.000743798
-0.000193693
-0.000461438
-8.00453e-05
-0.000211816
-2.20073e-05
-3.57293e-05
2.10282e-07
5.9713e-05
3.25953e-06
8.66167e-05
5.09495e-05
-4.44805e-05
0.000129995
-0.000123343
0.000289058
-0.000218852
0.000432102
-0.000326312
0.000584648
-0.000441768
0.000740506
-0.0005594
0.0008865
-0.000672261
0.00100964
-0.000773774
0.0010997
-0.000858952
0.00115103
-0.000925073
0.00116305
-0.000971865
0.00113964
-0.00100129
0.00108775
-0.00101695
0.0010158
-0.00102322
0.000932
-0.0010243
0.000843028
-0.00102355
0.000753375
-0.00102313
0.000665366
-0.0010241
0.000579686
-0.0010267
0.00049606
-0.0010307
0.000413837
-0.00103568
0.000332357
-0.00104125
0.000251113
-0.00104711
0.000169775
-0.00105306
8.81568e-05
-0.00105899
6.16618e-06
-0.00106487
-7.62228e-05
-0.00107072
-0.000158984
-0.00107663
-0.000242066
-0.00108275
-0.000325397
-0.00108943
-0.000408912
-0.00109728
-0.000492618
-0.00110732
-0.000576716
-0.00112101
-0.000661809
-0.00114003
-0.000749137
-0.00116562
-0.000840701
-0.00119714
-0.000938922
-0.00123017
-0.00104534
-0.00125469
-0.00115807
-0.0012549
-0.00126829
-0.0012119
-0.00135754
-0.00110982
-0.0013982
-0.00094385
-0.00135958
-0.000726976
-0.0012197
-0.000491111
-0.000979663
-0.000278814
-0.000673735
-0.000125329
-0.000365302
-3.97216e-05
-0.000121337
-4.43278e-06
2.44241e-05
3.01447e-06
7.9169e-05
5.39639e-05
-4.82623e-05
0.000178257
-0.00013183
0.000372625
-0.000230461
0.000530733
-0.000338332
0.000692519
-0.00045065
0.000852823
-0.000561186
0.000997036
-0.000663243
0.0011117
-0.000751096
0.00118756
-0.000821024
0.00122096
-0.000871797
0.00121383
-0.000904666
0.00117251
-0.000922891
0.00110597
-0.000930871
0.00102378
-0.0009331
0.000934229
-0.000933284
0.000843211
-0.000933858
0.000753949
-0.00093599
0.000667497
-0.000939889
0.000583585
-0.000945231
0.000501402
-0.000951515
0.000420122
-0.000958284
0.000339126
-0.000965211
0.000258041
-0.000972112
0.000176676
-0.000978905
9.49489e-05
-0.000985568
1.28294e-05
-0.000992105
-6.96856e-05
-0.000998519
-0.00015257
-0.0010048
-0.000235786
-0.00101093
-0.000319262
-0.00101696
-0.000402887
-0.00102305
-0.000486524
-0.00102969
-0.000570077
-0.00103786
-0.000653637
-0.00104923
-0.000737772
-0.00106602
-0.000823909
-0.00109031
-0.000914633
-0.00112227
-0.00101338
-0.00115755
-0.00112279
-0.00118479
-0.00124105
-0.00118534
-0.00135699
-0.00113712
-0.00144642
-0.00102299
-0.00147371
-0.000841052
-0.00140164
-0.000611946
-0.00120877
-0.000377364
-0.000908317
-0.000185484
-0.000557182
-6.59116e-05
-0.000240909
-1.23696e-05
-2.91183e-05
2.02218e-06
6.47772e-05
5.59861e-05
-4.96228e-05
0.00022788
-0.000134885
0.000457887
-0.000233559
0.000629407
-0.000338766
0.000797726
-0.000445163
0.00095922
-0.00054651
0.00109838
-0.000636688
0.00120188
-0.000711019
0.00126189
-0.00076711
0.00127705
-0.000805144
0.00125186
-0.000827638
0.001195
-0.000838699
0.00111703
-0.000842946
0.00102803
-0.000844444
0.000935728
-0.000846018
0.000844785
-0.000849088
0.000757019
-0.000853956
0.000672365
-0.000860274
0.000589902
-0.000867476
0.000508604
-0.000875055
0.000427701
-0.000882676
0.000346746
-0.000890173
0.000265538
-0.000897505
0.000184009
-0.000904702
0.000102146
-0.000911813
1.99411e-05
-0.000918884
-6.26152e-05
-0.000925926
-0.000145527
-0.000932916
-0.000228796
-0.000939782
-0.000312396
-0.000946413
-0.000396256
-0.000952697
-0.00048024
-0.00095863
-0.000564144
-0.000964507
-0.00064776
-0.000971231
-0.000731048
-0.000980617
-0.000814523
-0.000995424
-0.000899827
-0.00101855
-0.00099026
-0.00105084
-0.0010905
-0.00108761
-0.00120428
-0.00111535
-0.00132925
-0.00111179
-0.00144998
-0.00105177
-0.00153373
-0.000918701
-0.0015347
-0.00071717
-0.0014103
-0.000479342
-0.00114615
-0.000257816
-0.000778708
-0.000101384
-0.000397341
-2.37602e-05
-0.000106742
2.89819e-07
4.07269e-05
5.62758e-05
-4.84791e-05
0.000276359
-0.000132486
0.000541893
-0.000228392
0.000725313
-0.000328374
0.000897708
-0.000426822
0.00105767
-0.000517801
0.00118936
-0.000595983
0.00128006
-0.00065781
0.00132371
-0.000702149
0.00132139
-0.000730374
0.00128009
-0.000745881
0.00121051
-0.000753114
0.00112427
-0.0007564
0.00103131
-0.000759023
0.000938351
-0.00076282
0.000848582
-0.000768335
0.000762535
-0.000775293
0.000679324
-0.000783105
0.000597714
-0.000791216
0.000516715
-0.000799265
0.00043575
-0.000807093
0.000354574
-0.000814687
0.000273131
-0.000822112
0.000191434
-0.00082946
0.000109494
-0.000836818
2.72986e-05
-0.000844248
-5.51844e-05
-0.000851781
-0.000137994
-0.000859409
-0.000221168
-0.000867074
-0.000304731
-0.000874652
-0.000388678
-0.000881949
-0.000472944
-0.000888722
-0.00055737
-0.000894792
-0.00064169
-0.00090027
-0.000725571
-0.000905965
-0.000808827
-0.000913863
-0.000891929
-0.00092728
-0.000976844
-0.00094993
-0.00106785
-0.000983063
-0.00117115
-0.00102083
-0.00129148
-0.00104635
-0.00142446
-0.00103288
-0.0015472
-0.000953083
-0.00161449
-0.000794417
-0.00156897
-0.00057308
-0.00136748
-0.000336517
-0.00101527
-0.000145866
-0.000587992
-3.89771e-05
-0.000213631
-2.32136e-06
4.07118e-06
5.39545e-05
-4.49538e-05
0.000321313
-0.00012498
0.000621919
-0.000215697
0.00081603
-0.000308463
0.000990475
-0.000397641
0.00114685
-0.000477824
0.00126954
-0.000544583
0.00134682
-0.000595441
0.00137457
-0.000630345
0.00135629
-0.00065154
0.00130128
-0.000662861
0.00122183
-0.000668632
0.00113004
-0.000672546
0.00103523
-0.00067698
0.000942785
-0.000682897
0.000854498
-0.00069023
0.000769868
-0.000698431
0.000687525
-0.000706911
0.000606194
-0.000715266
0.00052507
-0.000723318
0.000443803
-0.000731065
0.000362321
-0.000738591
0.000280658
-0.000746012
0.000198856
-0.00075344
0.000116922
-0.000760961
3.48198e-05
-0.00076864
-4.75048e-05
-0.000776512
-0.000130122
-0.000784588
-0.000213092
-0.000792843
-0.000296476
-0.000801197
-0.000380323
-0.000809494
-0.000464647
-0.000817476
-0.000549388
-0.000824796
-0.00063437
-0.000831115
-0.000719251
-0.000836381
-0.000803561
-0.000841353
-0.000886957
-0.000848267
-0.00096993
-0.000861112
-0.001055
-0.000884382
-0.00114788
-0.000919169
-0.00125669
-0.000957103
-0.00138653
-0.000976249
-0.00152806
-0.000945005
-0.00164574
-0.000836506
-0.00167746
-0.000648026
-0.00155596
-0.000413653
-0.00124964
-0.000197323
-0.000804322
-5.8672e-05
-0.000352282
-5.8818e-06
-4.87192e-05
4.80727e-05
-3.93219e-05
0.000360635
-0.000112971
0.000695568
-0.000196521
0.000899581
-0.000280631
0.00107459
-0.000359813
0.00122603
-0.000429326
0.00133906
-0.000485649
0.00140314
-0.000527264
0.00141619
-0.000554943
0.00138397
-0.000571435
0.00131777
-0.000580614
0.00123101
-0.000586346
0.00113577
-0.000591542
0.00104042
-0.000597732
0.000948975
-0.000605232
0.000861998
-0.000613646
0.000778282
-0.000622386
0.000696266
-0.000630994
0.000614803
-0.000639252
0.000533328
-0.000647139
0.000451691
-0.00065475
0.000369932
-0.000662214
0.000288123
-0.000669657
0.000206299
-0.00067718
0.000124445
-0.000684856
4.24969e-05
-0.000692743
-3.9618e-05
-0.000700869
-0.000121995
-0.000709255
-0.000204706
-0.000717897
-0.000287833
-0.000726761
-0.000371459
-0.000735756
-0.000455651
-0.000744704
-0.00054044
-0.000753301
-0.000625773
-0.000761107
-0.000711445
-0.000767645
-0.000797022
-0.000772736
-0.000881866
-0.000777182
-0.000965484
-0.000783648
-0.00104853
-0.000796976
-0.00113455
-0.000822286
-0.00123139
-0.000859431
-0.00134938
-0.000895419
-0.00149207
-0.000901465
-0.00163969
-0.000842238
-0.00173669
-0.000696957
-0.00170124
-0.00048104
-0.00146556
-0.00025169
-0.00103367
-8.29864e-05
-0.000520986
-1.03726e-05
-0.000121333
3.77001e-05
-3.19568e-05
0.000392592
-9.72088e-05
0.00076082
-0.000172053
0.000974426
-0.000246549
0.00114908
-0.000315465
0.00129494
-0.000374785
0.00139838
-0.00042184
0.0014502
-0.000455885
0.00145023
-0.000478227
0.00140631
-0.000491772
0.00133132
-0.000500115
0.00123935
-0.000506484
0.00114214
-0.000513007
0.00104695
-0.000520542
0.00095651
-0.000529003
0.00087046
-0.000537889
0.000787169
-0.000546705
0.000705082
-0.000555166
0.000623263
-0.00056321
0.000541372
-0.000570919
0.000459401
-0.000578433
0.000377446
-0.000585888
0.000295578
-0.000593395
0.000213807
-0.000601039
0.00013209
-0.000608882
5.034e-05
-0.000616969
-3.15304e-05
-0.000625324
-0.000113639
-0.000633965
-0.000196065
-0.000642896
-0.000278902
-0.000652106
-0.000362249
-0.000661552
-0.000446205
-0.000671137
-0.000530855
-0.000680663
-0.000616246
-0.000689781
-0.000702327
-0.00069796
-0.000788842
-0.000704603
-0.000875222
-0.000709467
-0.00096062
-0.00071356
-0.00104444
-0.000720265
-0.00112784
-0.000735483
-0.00121617
-0.000764436
-0.00132043
-0.000803771
-0.00145273
-0.000832993
-0.00161047
-0.0008156
-0.00175408
-0.000716993
-0.00179985
-0.000532098
-0.00165046
-0.000303717
-0.00126205
-0.000110913
-0.00071379
-1.57966e-05
-0.000216449
2.19036e-05
-2.32832e-05
0.000415875
-7.85009e-05
0.000816039
-0.000143491
0.00103942
-0.000207804
0.00121339
-0.000266498
0.00135364
-0.000316284
0.00144816
-0.000355235
0.00148915
-0.000383171
0.00147817
-0.000401649
0.00142479
-0.000413446
0.00134312
-0.000421666
0.00124757
-0.000428842
0.00114932
-0.000436423
0.00105453
-0.000444796
0.000964883
-0.000453686
0.00087935
-0.000462623
0.000796107
-0.000471259
0.000713718
-0.000479463
0.000631468
-0.000487282
0.000549191
-0.000494847
0.000466967
-0.000502306
0.000384906
-0.000509782
0.000303054
-0.000517369
0.000221394
-0.00052514
0.000139862
-0.000533148
5.83485e-05
-0.000541435
-2.32428e-05
-0.000550018
-0.000105055
-0.000558911
-0.000187172
-0.000568116
-0.000269695
-0.000577629
-0.000352737
-0.000587426
-0.000436407
-0.000597458
-0.000520822
-0.000607616
-0.000606088
-0.000617677
-0.000692266
-0.000627234
-0.000779285
-0.000635662
-0.000866794
-0.00064226
-0.000954022
-0.000646827
-0.00103988
-0.000650852
-0.00112382
-0.000658845
-0.00120817
-0.000677823
-0.00130145
-0.000711761
-0.0014188
-0.000750795
-0.00157144
-0.00076398
-0.0017409
-0.000709379
-0.00185445
-0.000562998
-0.00179684
-0.000348394
-0.00147666
-0.000140472
-0.000921712
-2.20493e-05
-0.000334872
-1.45611e-07
-1.37421e-05
0.000429618
-5.76449e-05
0.000859942
-0.000111961
0.00109373
-0.000165807
0.00126724
-0.000214513
0.00140234
-0.000255465
0.00148912
-0.000287353
0.00152104
-0.000310352
0.00150117
-0.000326027
0.00144046
-0.000336807
0.0013539
-0.000345196
0.00125596
-0.000353063
0.00115718
-0.000361321
0.00106279
-0.000370072
0.000973634
-0.000378995
0.000888273
-0.000387724
0.000804836
-0.000396054
0.000722049
-0.000403969
0.000639383
-0.000411574
0.000556797
-0.000419017
0.00047441
-0.000426431
0.000392321
-0.000433924
0.000310548
-0.000441576
0.000229047
-0.000449453
0.00014774
-0.00045761
6.6506e-05
-0.000466089
-1.47625e-05
-0.000474905
-9.62387e-05
-0.000484066
-0.00017801
-0.000493571
-0.00026019
-0.000503409
-0.000342898
-0.000513563
-0.000426253
-0.000524001
-0.000510383
-0.000534664
-0.000595425
-0.000545422
-0.000681508
-0.000556012
-0.000768695
-0.000565949
-0.000856856
-0.000574499
-0.000945472
-0.000580897
-0.00103348
-0.00058518
-0.00111953
-0.000589752
-0.0012036
-0.000600714
-0.00129049
-0.000625691
-0.00139382
-0.000664467
-0.00153266
-0.000696089
-0.00170928
-0.000678441
-0.0018721
-0.000572914
-0.00190236
-0.000382029
-0.00166754
-0.000169105
-0.00113464
-2.93355e-05
-0.000474641
-2.94811e-05
-3.75278e-06
0.000433371
-3.54044e-05
0.000891594
-7.84685e-05
0.0011368
-0.000121757
0.00131053
-0.000160793
0.00144138
-0.000193558
0.00152188
-0.000219233
0.00154671
-0.000238163
0.0015201
-0.00025173
0.00145403
-0.000261876
0.00136404
-0.000270467
0.00126455
-0.000278782
0.0011655
-0.000287343
0.00107135
-0.000296106
0.000982398
-0.000304791
0.000896959
-0.000313158
0.000813203
-0.000321119
0.00073001
-0.00032873
0.000646996
-0.000336121
0.000564189
-0.000343432
0.000481721
-0.000350781
0.000399671
-0.00035826
0.000318028
-0.000365941
0.00023673
-0.00037389
0.00015569
-0.000382168
7.4785e-05
-0.000390823
-6.10599e-06
-0.000399872
-8.71886e-05
-0.00040932
-0.000168561
-0.000419157
-0.000250352
-0.000429368
-0.000332686
-0.000439932
-0.000415689
-0.000450821
-0.000499494
-0.000461994
-0.000584251
-0.000473374
-0.000670127
-0.000484798
-0.00075727
-0.000495938
-0.000845716
-0.000506205
-0.000935205
-0.000514748
-0.00102493
-0.000520844
-0.00111344
-0.00052511
-0.00119933
-0.0005315
-0.0012841
-0.000547953
-0.00137737
-0.000580735
-0.00149988
-0.000620172
-0.00166984
-0.000630183
-0.00186209
-0.000563551
-0.00196899
-0.000402743
-0.00182835
-0.000194386
-0.00134299
-3.77157e-05
-0.000631311
-6.71967e-05
6.14706e-06
0.000427224
-1.24454e-05
0.000910187
-4.39014e-05
0.00116825
-7.6641e-05
0.00134327
-0.000106328
0.00147107
-0.000131442
0.001547
-0.000151532
0.0015668
-0.000166979
0.00153554
-0.000178844
0.0014659
-0.000188501
0.0013737
-0.000197191
0.00127324
-0.000205684
0.00117399
-0.000214232
0.0010799
-0.000222738
0.000990905
-0.000231006
0.000905227
-0.000238913
0.000821111
-0.00024646
0.000737558
-0.000253744
0.00065428
-0.000260896
0.000571341
-0.00026804
0.000488867
-0.000275282
0.000406913
-0.000282703
0.00032545
-0.000290371
0.000244399
-0.00029835
0.00016367
-0.000306715
8.31512e-05
-0.000315522
2.70273e-06
-0.000324799
-7.79105e-05
-0.000334547
-0.000158813
-0.000344747
-0.000240151
-0.000355379
-0.000322054
-0.000366415
-0.000404651
-0.000377828
-0.00048808
-0.000389582
-0.000572496
-0.000401624
-0.000658086
-0.000413846
-0.000745048
-0.00042603
-0.000833531
-0.000437753
-0.000923482
-0.000448295
-0.00101439
-0.000456723
-0.00110501
-0.000462578
-0.00119348
-0.000467659
-0.00127902
-0.000478199
-0.00136683
-0.000503225
-0.00147485
-0.000542817
-0.00163025
-0.000570956
-0.00183395
-0.000538304
-0.00200165
-0.000410428
-0.00195622
-0.000214563
-0.00153886
-4.67714e-05
-0.000799103
-0.000113968
1.53528e-05
0.000411872