/*--------------------------------*- C++ -*----------------------------------*\
  =========                 |
  \\      /  F ield         | OpenFOAM: The Open Source CFD Toolbox
   \\    /   O peration     | Website:  https://openfoam.org
    \\  /    A nd           | Version:  7
     \\/     M anipulation  |
\*---------------------------------------------------------------------------*/
FoamFile
{
    version     2.0;
    format      ascii;
    class       volVectorField;
    location    "400";
    object      U;
}
// * * * * * * * * * * * * * * * * * * * * * * * * * * * * * * * * * * * * * //

dimensions      [0 1 -1 0 0 0 0];

internalField   nonuniform List<vector> 
2500
(
(0.000207925 -0.000202003 0)
(0.0018688 -0.000572009 0)
(0.00447873 -0.00069858 0)
(0.00716821 -0.000600652 0)
(0.00923373 -0.000419385 0)
(0.0104539 -0.000264719 0)
(0.0109323 -0.000188511 0)
(0.0108817 -0.000186519 0)
(0.0104493 -0.000220562 0)
(0.0096296 -0.000246043 0)
(0.00827296 -0.000229069 0)
(0.0061464 -0.000150795 0)
(0.00299212 -2.1643e-06 0)
(-0.00143414 0.000222204 0)
(-0.0073375 0.000525482 0)
(-0.0148509 0.000911307 0)
(-0.0239972 0.00137979 0)
(-0.0346464 0.00191941 0)
(-0.0464809 0.00249696 0)
(-0.0589743 0.00305008 0)
(-0.0713977 0.00348881 0)
(-0.082857 0.00370829 0)
(-0.092362 0.00360976 0)
(-0.0989284 0.00312761 0)
(-0.101689 0.00225563 0)
(-0.0999673 0.00105152 0)
(-0.093491 -0.000354233 0)
(-0.0823312 -0.0017957 0)
(-0.0669523 -0.00309912 0)
(-0.0482081 -0.00409727 0)
(-0.0273147 -0.00464515 0)
(-0.00575614 -0.00462072 0)
(0.0149401 -0.00395865 0)
(0.0333025 -0.00281041 0)
(0.0480218 -0.00139836 0)
(0.0581351 9.93159e-05 0)
(0.0632553 0.00147376 0)
(0.0635896 0.00251646 0)
(0.0599381 0.00310055 0)
(0.0534651 0.00321925 0)
(0.0454032 0.00298497 0)
(0.0368581 0.00255054 0)
(0.0286699 0.00205075 0)
(0.0213617 0.00157666 0)
(0.0151655 0.00117637 0)
(0.0100943 0.000865216 0)
(0.00603941 0.000632698 0)
(0.00290762 0.000437222 0)
(0.000798377 0.000193768 0)
(-8.14784e-05 -8.68554e-05 0)
(0.000567305 -0.00182145 0)
(0.00437932 -0.00432084 0)
(0.00958813 -0.0051203 0)
(0.0146088 -0.00444207 0)
(0.0181627 -0.00299783 0)
(0.0197639 -0.00145611 0)
(0.0194513 -0.000190024 0)
(0.0174356 0.000769139 0)
(0.013801 0.00163086 0)
(0.00835673 0.00267422 0)
(0.000664503 0.00411651 0)
(-0.00983333 0.00606351 0)
(-0.0236667 0.00851931 0)
(-0.0411983 0.0114167 0)
(-0.0625079 0.0146172 0)
(-0.0872867 0.0178946 0)
(-0.114774 0.0209277 0)
(-0.143774 0.0233239 0)
(-0.172761 0.0246738 0)
(-0.200052 0.02462 0)
(-0.22399 0.0229153 0)
(-0.243094 0.0194601 0)
(-0.256165 0.0143182 0)
(-0.262346 0.00772161 0)
(-0.261162 5.96555e-05 0)
(-0.252543 -0.00815224 0)
(-0.236686 -0.0163432 0)
(-0.214036 -0.0239596 0)
(-0.185357 -0.0304385 0)
(-0.151735 -0.0352455 0)
(-0.114577 -0.0379173 0)
(-0.075581 -0.0381092 0)
(-0.036655 -0.0356726 0)
(0.000262873 -0.0307874 0)
(0.0333265 -0.0239498 0)
(0.0608562 -0.0158857 0)
(0.0815322 -0.00741636 0)
(0.0946249 0.000575779 0)
(0.0999983 0.00724605 0)
(0.0982549 0.0120089 0)
(0.090846 0.0146627 0)
(0.0795566 0.0154061 0)
(0.0662136 0.0147022 0)
(0.0524175 0.0131046 0)
(0.03935 0.01112 0)
(0.0277094 0.00911589 0)
(0.017787 0.00725527 0)
(0.00969177 0.00544105 0)
(0.00373108 0.00334875 0)
(0.000330162 0.000921496 0)
(0.000786804 -0.00450078 0)
(0.00569198 -0.00970235 0)
(0.0117204 -0.0109214 0)
(0.016904 -0.00900484 0)
(0.0197524 -0.00541816 0)
(0.0196891 -0.00145997 0)
(0.0166315 0.00216618 0)
(0.0105763 0.0054419 0)
(0.00129616 0.00880771 0)
(-0.0117432 0.0128306 0)
(-0.0292561 0.0178962 0)
(-0.0518704 0.0240808 0)
(-0.0798903 0.0311718 0)
(-0.113083 0.0387038 0)
(-0.150569 0.0459949 0)
(-0.190868 0.0522248 0)
(-0.232088 0.0565692 0)
(-0.27219 0.0583422 0)
(-0.309249 0.0570984 0)
(-0.341641 0.0526731 0)
(-0.36813 0.0451664 0)
(-0.387875 0.0348943 0)
(-0.400364 0.0223296 0)
(-0.405342 0.00805215 0)
(-0.402734 -0.0072888 0)
(-0.392517 -0.0230118 0)
(-0.37473 -0.0384074 0)
(-0.349637 -0.0526889 0)
(-0.317723 -0.0650212 0)
(-0.279752 -0.0745646 0)
(-0.23681 -0.0805444 0)
(-0.19033 -0.0823488 0)
(-0.14207 -0.0796434 0)
(-0.0940341 -0.0724793 0)
(-0.0483339 -0.0613993 0)
(-0.00696799 -0.0474073 0)
(0.0283393 -0.0317931 0)
(0.0562243 -0.0160073 0)
(0.0759897 -0.00134112 0)
(0.0873665 0.0110081 0)
(0.0906056 0.0201286 0)
(0.0869569 0.0256519 0)
(0.0781236 0.0278058 0)
(0.0659947 0.0272774 0)
(0.0523715 0.0249651 0)
(0.0387177 0.0217248 0)
(0.0260368 0.0181285 0)
(0.014972 0.0142482 0)
(0.00625918 0.00959204 0)
(0.000705801 0.00359207 0)
(0.00091854 -0.00773392 0)
(0.00606876 -0.0155997 0)
(0.0115407 -0.0165381 0)
(0.015147 -0.0124423 0)
(0.0153849 -0.00571501 0)
(0.011696 0.00172663 0)
(0.00385453 0.00897886 0)
(-0.00849069 0.0161529 0)
(-0.0260073 0.0240134 0)
(-0.0495117 0.0333109 0)
(-0.07964 0.0443231 0)
(-0.116485 0.0567058 0)
(-0.159374 0.0695797 0)
(-0.206845 0.0817189 0)
(-0.256852 0.0917929 0)
(-0.307108 0.0986161 0)
(-0.355438 0.101342 0)
(-0.400036 0.0995529 0)
(-0.439573 0.093237 0)
(-0.473176 0.0826987 0)
(-0.500328 0.0684403 0)
(-0.520734 0.0510603 0)
(-0.534204 0.0311869 0)
(-0.540579 0.0094552 0)
(-0.539703 -0.0134754 0)
(-0.531389 -0.0368774 0)
(-0.515507 -0.0599072 0)
(-0.492031 -0.0816019 0)
(-0.461064 -0.100896 0)
(-0.42292 -0.116649 0)
(-0.378215 -0.127724 0)
(-0.327959 -0.133117 0)
(-0.273617 -0.132128 0)
(-0.217123 -0.124547 0)
(-0.160788 -0.110801 0)
(-0.107095 -0.0919968 0)
(-0.0583973 -0.0698307 0)
(-0.01657 -0.046308 0)
(0.0171884 -0.0233453 0)
(0.0422811 -0.00269105 0)
(0.0586513 0.014416 0)
(0.0665512 0.0270493 0)
(0.0670894 0.0348298 0)
(0.0618193 0.0380947 0)
(0.0525292 0.0377452 0)
(0.0410106 0.0349161 0)
(0.0288161 0.0305656 0)
(0.0171832 0.0250372 0)
(0.00741926 0.0177483 0)
(0.000861977 0.00737164 0)
(0.00100008 -0.0110246 0)
(0.00560599 -0.0208297 0)
(0.00921122 -0.0203374 0)
(0.00964109 -0.0128759 0)
(0.00555838 -0.00189542 0)
(-0.00355623 0.0101819 0)
(-0.0181698 0.0224584 0)
(-0.0390401 0.0353809 0)
(-0.0671015 0.0498892 0)
(-0.103003 0.0665056 0)
(-0.146635 0.0848518 0)
(-0.196913 0.103691 0)
(-0.251891 0.121289 0)
(-0.309112 0.13585 0)
(-0.366069 0.145889 0)
(-0.420583 0.150461 0)
(-0.471015 0.149202 0)
(-0.516286 0.142242 0)
(-0.555775 0.130041 0)
(-0.589163 0.113221 0)
(-0.616299 0.092455 0)
(-0.637104 0.0684022 0)
(-0.651515 0.0416973 0)
(-0.659458 0.0129645 0)
(-0.66083 -0.0171468 0)
(-0.655498 -0.0479124 0)
(-0.643247 -0.0784779 0)
(-0.623801 -0.107836 0)
(-0.596866 -0.134809 0)
(-0.562204 -0.158042 0)
(-0.519763 -0.176062 0)
(-0.469829 -0.187398 0)
(-0.413207 -0.190791 0)
(-0.351365 -0.185461 0)
(-0.286503 -0.171381 0)
(-0.221454 -0.149475 0)
(-0.159383 -0.121626 0)
(-0.103298 -0.0904377 0)
(-0.0554937 -0.0587662 0)
(-0.0171692 -0.0291366 0)
(0.0115442 -0.00333093 0)
(0.0310308 0.0174451 0)
(0.0418397 0.0325195 0)
(0.0451731 0.0417348 0)
(0.0425495 0.0456258 0)
(0.0356939 0.0452584 0)
(0.0263691 0.0417412 0)
(0.0162344 0.0355954 0)
(0.00710311 0.0261598 0)
(0.000795679 0.0113863 0)
(0.000995152 -0.013926 0)
(0.00414952 -0.0242845 0)
(0.00454783 -0.0208481 0)
(0.000335541 -0.00867482 0)
(-0.00955974 0.00773149 0)
(-0.0257018 0.0256924 0)
(-0.048836 0.0446098 0)
(-0.0799425 0.0651578 0)
(-0.119731 0.0879888 0)
(-0.168009 0.112782 0)
(-0.223421 0.138073 0)
(-0.283654 0.161705 0)
(-0.345933 0.181456 0)
(-0.407566 0.195551 0)
(-0.466332 0.202926 0)
(-0.520656 0.203243 0)
(-0.569572 0.196732 0)
(-0.61258 0.183979 0)
(-0.649494 0.165731 0)
(-0.680323 0.142771 0)
(-0.705197 0.115853 0)
(-0.724318 0.0856768 0)
(-0.737912 0.052889 0)
(-0.746175 0.0180929 0)
(-0.749214 -0.0181251 0)
(-0.747033 -0.0551535 0)
(-0.739434 -0.0922886 0)
(-0.72598 -0.128655 0)
(-0.706054 -0.163151 0)
(-0.678885 -0.194391 0)
(-0.643675 -0.220708 0)
(-0.599772 -0.240233 0)
(-0.546924 -0.251073 0)
(-0.48557 -0.251622 0)
(-0.417115 -0.240945 0)
(-0.344084 -0.219189 0)
(-0.270046 -0.187856 0)
(-0.199187 -0.149793 0)
(-0.135564 -0.108771 0)
(-0.0821901 -0.0686714 0)
(-0.0403688 -0.0326258 0)
(-0.00973286 -0.00250776 0)
(0.0108841 0.0209448 0)
(0.0226739 0.0374508 0)
(0.0270637 0.0472238 0)
(0.0257167 0.0510428 0)
(0.0204224 0.0498999 0)
(0.0130539 0.0443 0)
(0.00573903 0.0334693 0)
(0.000589807 0.0148925 0)
(0.000837879 -0.0158593 0)
(0.00146271 -0.0247396 0)
(-0.0026455 -0.0166362 0)
(-0.0127701 0.00153451 0)
(-0.0296951 0.0245154 0)
(-0.0540966 0.0497133 0)
(-0.0868739 0.0768213 0)
(-0.128782 0.106299 0)
(-0.179684 0.13789 0)
(-0.238139 0.170037 0)
(-0.301611 0.200254 0)
(-0.36706 0.225906 0)
(-0.431572 0.244882 0)
(-0.492786 0.25593 0)
(-0.549055 0.258665 0)
(-0.599393 0.253378 0)
(-0.643333 0.240781 0)
(-0.680783 0.22179 0)
(-0.711932 0.19738 0)
(-0.737172 0.168498 0)
(-0.757034 0.136011 0)
(-0.772114 0.10067 0)
(-0.782987 0.0631023 0)
(-0.790135 0.0238246 0)
(-0.793887 -0.0167252 0)
(-0.794393 -0.0581444 0)
(-0.79156 -0.100001 0)
(-0.784943 -0.141707 0)
(-0.773792 -0.182428 0)
(-0.757026 -0.220984 0)
(-0.733286 -0.255773 0)
(-0.701062 -0.284768 0)
(-0.658935 -0.305605 0)
(-0.605928 -0.315838 0)
(-0.541958 -0.313347 0)
(-0.468278 -0.2969 0)
(-0.387778 -0.266738 0)
(-0.304941 -0.224992 0)
(-0.225297 -0.175671 0)
(-0.15432 -0.124009 0)
(-0.0960226 -0.0752042 0)
(-0.0518828 -0.0330655 0)
(-0.0208986 0.000640382 0)
(-0.000865281 0.0257699 0)
(0.0102152 0.0426563 0)
(0.0142459 0.0519199 0)
(0.013162 0.0543558 0)
(0.00898677 0.0503163 0)
(0.00398962 0.0389059 0)
(0.000361065 0.0174846 0)
(0.000461336 -0.0160786 0)
(-0.00260364 -0.0209155 0)
(-0.0123495 -0.00652584 0)
(-0.0293363 0.0187805 0)
(-0.054094 0.0494246 0)
(-0.087374 0.0830649 0)
(-0.129896 0.119346 0)
(-0.181658 0.157912 0)
(-0.241323 0.197199 0)
(-0.306292 0.234488 0)
(-0.373322 0.266729 0)
(-0.439245 0.291388 0)
(-0.501463 0.306912 0)
(-0.55814 0.312778 0)
(-0.608175 0.309286 0)
(-0.65107 0.297279 0)
(-0.686809 0.277888 0)
(-0.715758 0.252361 0)
(-0.738574 0.221931 0)
(-0.756104 0.187722 0)
(-0.769276 0.150686 0)
(-0.778997 0.111562 0)
(-0.786065 0.0708839 0)
(-0.79112 0.0290103 0)
(-0.794623 -0.0138218 0)
(-0.796839 -0.0574526 0)
(-0.797806 -0.10175 0)
(-0.79722 -0.146479 0)
(-0.794457 -0.191193 0)
(-0.788472 -0.235111 0)
(-0.777762 -0.276988 0)
(-0.760378 -0.315002 0)
(-0.734049 -0.346714 0)
(-0.696473 -0.369161 0)
(-0.6458 -0.379166 0)
(-0.581269 -0.37389 0)
(-0.503883 -0.351608 0)
(-0.416907 -0.312553 0)
(-0.325903 -0.259538 0)
(-0.238019 -0.197982 0)
(-0.160456 -0.13496 0)
(-0.0984055 -0.0773233 0)
(-0.0534522 -0.0296373 0)
(-0.0236876 0.00666397 0)
(-0.00564514 0.0322913 0)
(0.00355201 0.0481773 0)
(0.00641582 0.0551655 0)
(0.00526491 0.0535314 0)
(0.0024776 0.0423414 0)
(0.000208393 0.0191431 0)
(-0.000177429 -0.0137498 0)
(-0.00800285 -0.0117402 0)
(-0.0241955 0.01033 0)
(-0.0485493 0.0436644 0)
(-0.0813809 0.0828312 0)
(-0.123323 0.125611 0)
(-0.174504 0.171068 0)
(-0.23384 0.21759 0)
(-0.298852 0.262316 0)
(-0.366199 0.301793 0)
(-0.432459 0.332961 0)
(-0.494733 0.35382 0)
(-0.550914 0.36358 0)
(-0.599715 0.362474 0)
(-0.640566 0.35146 0)
(-0.673505 0.331918 0)
(-0.699071 0.305427 0)
(-0.718173 0.273576 0)
(-0.731944 0.237819 0)
(-0.741583 0.199369 0)
(-0.748229 0.159144 0)
(-0.75287 0.11777 0)
(-0.756306 0.0756107 0)
(-0.759142 0.0328364 0)
(-0.761829 -0.0105157 0)
(-0.764668 -0.0544917 0)
(-0.767785 -0.0991887 0)
(-0.7711 -0.144667 0)
(-0.774298 -0.190857 0)
(-0.776695 -0.237453 0)
(-0.777116 -0.283761 0)
(-0.773774 -0.328515 0)
(-0.764213 -0.369695 0)
(-0.745409 -0.404415 0)
(-0.714108 -0.428996 0)
(-0.667449 -0.439334 0)
(-0.603843 -0.431623 0)
(-0.523952 -0.40343 0)
(-0.431447 -0.354893 0)
(-0.333137 -0.28965 0)
(-0.238056 -0.214897 0)
(-0.155346 -0.140041 0)
(-0.0913731 -0.0739126 0)
(-0.0475043 -0.021768 0)
(-0.0205066 0.0156237 0)
(-0.00552833 0.0399775 0)
(0.00116756 0.0526779 0)
(0.00265308 0.0543149 0)
(0.00159797 0.0441549 0)
(0.00018345 0.0201493 0)
(-0.00107953 -0.00810647 0)
(-0.0144567 0.00353163 0)
(-0.0374427 0.0343059 0)
(-0.0691499 0.0762372 0)
(-0.10963 0.12435 0)
(-0.159131 0.17618 0)
(-0.216897 0.229741 0)
(-0.280758 0.282063 0)
(-0.347431 0.329326 0)
(-0.413304 0.367866 0)
(-0.475154 0.395065 0)
(-0.530547 0.409689 0)
(-0.577947 0.411789 0)
(-0.616668 0.402376 0)
(-0.646775 0.383084 0)
(-0.668962 0.35586 0)
(-0.684378 0.322708 0)
(-0.694424 0.285464 0)
(-0.700535 0.245648 0)
(-0.704015 0.204384 0)
(-0.705943 0.162412 0)
(-0.707144 0.12014 0)
(-0.708207 0.0777301 0)
(-0.709537 0.0351753 0)
(-0.711438 -0.00763309 0)
(-0.714164 -0.0508588 0)
(-0.717854 -0.0947 0)
(-0.722619 -0.139365 0)
(-0.728476 -0.185029 0)
(-0.735238 -0.231774 0)
(-0.742358 -0.279467 0)
(-0.748723 -0.327571 0)
(-0.752434 -0.374882 0)
(-0.750651 -0.41923 0)
(-0.739635 -0.457263 0)
(-0.71512 -0.484455 0)
(-0.673103 -0.495534 0)
(-0.61104 -0.485448 0)
(-0.529203 -0.450844 0)
(-0.431771 -0.391772 0)
(-0.327053 -0.313007 0)
(-0.226253 -0.224121 0)
(-0.140562 -0.137466 0)
(-0.0772079 -0.0640754 0)
(-0.0366645 -0.00951397 0)
(-0.0138339 0.0266473 0)
(-0.00266039 0.0470303 0)
(0.00128532 0.0531641 0)
(0.00144035 0.0449627 0)
(0.000287911 0.0209234 0)
(-0.00218695 0.00139552 0)
(-0.0214644 0.0251832 0)
(-0.0510868 0.0652581 0)
(-0.0895853 0.11596 0)
(-0.13664 0.172839 0)
(-0.191884 0.232777 0)
(-0.253607 0.292507 0)
(-0.318794 0.347896 0)
(-0.383775 0.394639 0)
(-0.445034 0.429328 0)
(-0.499778 0.450072 0)
(-0.546159 0.456545 0)
(-0.58331 0.449698 0)
(-0.611266 0.431369 0)
(-0.630832 0.403892 0)
(-0.643376 0.36973 0)
(-0.650549 0.331162 0)
(-0.654014 0.29006 0)
(-0.655224 0.247781 0)
(-0.655307 0.205178 0)
(-0.655051 0.162692 0)
(-0.654953 0.120471 0)
(-0.655289 0.0784815 0)
(-0.656202 0.0365933 0)
(-0.6578 -0.00536855 0)
(-0.660231 -0.0475866 0)
(-0.663596 -0.0902431 0)
(-0.668081 -0.133542 0)
(-0.673906 -0.177719 0)
(-0.681272 -0.22304 0)
(-0.690244 -0.269746 0)
(-0.700554 -0.317936 0)
(-0.711319 -0.367325 0)
(-0.720695 -0.41687 0)
(-0.725584 -0.464325 0)
(-0.721574 -0.505837 0)
(-0.703324 -0.535862 0)
(-0.66557 -0.547665 0)
(-0.604721 -0.534631 0)
(-0.520711 -0.492323 0)
(-0.418484 -0.420886 0)
(-0.308248 -0.32686 0)
(-0.203712 -0.223109 0)
(-0.118025 -0.125644 0)
(-0.0585205 -0.0475975 0)
(-0.0236957 0.00606532 0)
(-0.00622351 0.0376244 0)
(0.000661086 0.0502901 0)
(0.0018031 0.0452896 0)
(0.000485358 0.0218478 0)
(-0.00336368 0.0149858 0)
(-0.0283783 0.0530079 0)
(-0.0640072 0.102556 0)
(-0.108246 0.161741 0)
(-0.160294 0.226571 0)
(-0.219066 0.292973 0)
(-0.282032 0.356425 0)
(-0.34567 0.412001 0)
(-0.406282 0.455374 0)
(-0.460709 0.48374 0)
(-0.506736 0.496133 0)
(-0.543221 0.49324 0)
(-0.570074 0.476987 0)
(-0.588133 0.450059 0)
(-0.598923 0.415413 0)
(-0.604323 0.37584 0)
(-0.606216 0.333635 0)
(-0.606208 0.290437 0)
(-0.605486 0.247234 0)
(-0.604798 0.204488 0)
(-0.604537 0.162307 0)
(-0.604844 0.120603 0)
(-0.605721 0.0792083 0)
(-0.607102 0.0379384 0)
(-0.608945 -0.00337501 0)
(-0.611297 -0.0448674 0)
(-0.614212 -0.0866465 0)
(-0.617836 -0.128826 0)
(-0.622417 -0.171569 0)
(-0.628292 -0.215117 0)
(-0.63586 -0.25981 0)
(-0.64547 -0.306071 0)
(-0.657213 -0.354283 0)
(-0.670557 -0.404505 0)
(-0.683855 -0.455968 0)
(-0.693859 -0.506401 0)
(-0.695498 -0.551378 0)
(-0.682282 -0.584089 0)
(-0.647575 -0.595957 0)
(-0.586729 -0.578459 0)
(-0.499563 -0.526036 0)
(-0.392278 -0.439443 0)
(-0.277596 -0.328088 0)
(-0.172063 -0.209429 0)
(-0.0903215 -0.103766 0)
(-0.0383678 -0.0254597 0)
(-0.0113737 0.0227563 0)
(-0.000176385 0.0452522 0)
(0.00228791 0.0452783 0)
(0.000719634 0.0231263 0)
(-0.00444594 0.0325074 0)
(-0.0345463 0.0863359 0)
(-0.075148 0.145137 0)
(-0.123708 0.212071 0)
(-0.178882 0.283504 0)
(-0.238906 0.354291 0)
(-0.300669 0.41887 0)
(-0.36048 0.471937 0)
(-0.414881 0.509534 0)
(-0.461246 0.529719 0)
(-0.498058 0.532601 0)
(-0.524974 0.519977 0)
(-0.542735 0.494771 0)
(-0.552928 0.460428 0)
(-0.557601 0.420319 0)
(-0.558845 0.377263 0)
(-0.558433 0.33327 0)
(-0.557635 0.289521 0)
(-0.557191 0.246524 0)
(-0.557412 0.204339 0)
(-0.558331 0.162802 0)
(-0.559838 0.121677 0)
(-0.561776 0.0807459 0)
(-0.563993 0.0398354 0)
(-0.566385 -0.00117525 0)
(-0.568954 -0.0423576 0)
(-0.571719 -0.0837446 0)
(-0.574743 -0.12536 0)
(-0.578187 -0.167254 0)
(-0.582315 -0.209539 0)
(-0.587529 -0.252446 0)
(-0.594371 -0.296381 0)
(-0.603456 -0.341949 0)
(-0.615257 -0.389859 0)
(-0.629669 -0.440596 0)
(-0.645343 -0.493753 0)
(-0.658938 -0.547048 0)
(-0.664695 -0.595325 0)
(-0.65485 -0.630124 0)
(-0.621306 -0.640534 0)
(-0.558483 -0.615795 0)
(-0.466582 -0.549463 0)
(-0.353892 -0.443971 0)
(-0.236465 -0.313378 0)
(-0.133835 -0.181379 0)
(-0.0609253 -0.0725908 0)
(-0.0200908 -0.000360052 0)
(-0.00229418 0.0368151 0)
(0.00245726 0.0445423 0)
(0.000938239 0.0247184 0)
(-0.00528557 0.0533943 0)
(-0.0394086 0.124105 0)
(-0.0836539 0.191625 0)
(-0.134909 0.265212 0)
(-0.191292 0.341561 0)
(-0.250493 0.414511 0)
(-0.309095 0.477765 0)
(-0.363507 0.52604 0)
(-0.410708 0.556052 0)
(-0.44872 0.566918 0)
(-0.476803 0.559944 0)
(-0.495439 0.538068 0)
(-0.506128 0.505138 0)
(-0.510997 0.465138 0)
(-0.512309 0.421533 0)
(-0.512021 0.376842 0)
(-0.511524 0.33255 0)
(-0.511593 0.289269 0)
(-0.5125 0.247039 0)
(-0.5142 0.205615 0)
(-0.516502 0.164681 0)
(-0.519193 0.123962 0)
(-0.522091 0.0832645 0)
(-0.525056 0.0424648 0)
(-0.528003 0.00149747 0)
(-0.530934 -0.0396612 0)
(-0.533868 -0.0809998 0)
(-0.536798 -0.122497 0)
(-0.539782 -0.164126 0)
(-0.542932 -0.205882 0)
(-0.546473 -0.247824 0)
(-0.550801 -0.290157 0)
(-0.556537 -0.33333 0)
(-0.564515 -0.378125 0)
(-0.575585 -0.425605 0)
(-0.590111 -0.476751 0)
(-0.607081 -0.531578 0)
(-0.623046 -0.587729 0)
(-0.631422 -0.639 0)
(-0.622984 -0.674695 0)
(-0.588129 -0.680941 0)
(-0.520712 -0.644549 0)
(-0.42222 -0.55896 0)
(-0.304257 -0.430259 0)
(-0.187098 -0.279782 0)
(-0.0927923 -0.139042 0)
(-0.0339794 -0.0353298 0)
(-0.0065288 0.0230373 0)
(0.00199711 0.0422126 0)
(0.00111385 0.0263737 0)
(-0.00576189 0.0767378 0)
(-0.0425552 0.164979 0)
(-0.0889556 0.240474 0)
(-0.141241 0.319393 0)
(-0.197053 0.398849 0)
(-0.253722 0.471839 0)
(-0.307774 0.531676 0)
(-0.355921 0.573424 0)
(-0.3957 0.594717 0)
(-0.425846 0.595875 0)
(-0.446405 0.579457 0)
(-0.458606 0.549487 0)
(-0.464506 0.510529 0)
(-0.466475 0.466791 0)
(-0.466657 0.421484 0)
(-0.466615 0.376566 0)
(-0.467218 0.332877 0)
(-0.468752 0.290487 0)
(-0.47113 0.249087 0)
(-0.474107 0.208275 0)
(-0.477424 0.16771 0)
(-0.480885 0.127163 0)
(-0.484366 0.0865056 0)
(-0.487791 0.0456726 0)
(-0.491125 0.00463979 0)
(-0.494399 -0.036594 0)
(-0.497641 -0.078007 0)
(-0.500819 -0.119577 0)
(-0.503927 -0.161257 0)
(-0.506961 -0.202988 0)
(-0.509961 -0.244715 0)
(-0.513066 -0.28644 0)
(-0.516617 -0.328321 0)
(-0.521263 -0.370831 0)
(-0.528015 -0.414923 0)
(-0.53809 -0.462054 0)
(-0.552325 -0.513772 0)
(-0.570025 -0.570526 0)
(-0.587488 -0.629684 0)
(-0.597024 -0.683409 0)
(-0.587679 -0.717897 0)
(-0.548437 -0.715591 0)
(-0.473362 -0.661074 0)
(-0.366692 -0.549446 0)
(-0.244946 -0.39376 0)
(-0.133183 -0.226017 0)
(-0.0540149 -0.0859158 0)
(-0.0133678 0.00151036 0)
(0.000756846 0.0371117 0)
(0.00125043 0.027734 0)
(-0.00580009 0.101403 0)
(-0.0437565 0.207476 0)
(-0.0907939 0.290106 0)
(-0.142541 0.372966 0)
(-0.196266 0.453791 0)
(-0.24913 0.524987 0)
(-0.297804 0.579791 0)
(-0.339433 0.613889 0)
(-0.372174 0.626003 0)
(-0.395478 0.617737 0)
(-0.410099 0.592877 0)
(-0.417832 0.556365 0)
(-0.421023 0.513186 0)
(-0.421973 0.467423 0)
(-0.422459 0.421749 0)
(-0.423524 0.377424 0)
(-0.425534 0.334665 0)
(-0.428408 0.293132 0)
(-0.43187 0.252332 0)
(-0.435625 0.211843 0)
(-0.439458 0.171391 0)
(-0.443252 0.130833 0)
(-0.446967 0.0901098 0)
(-0.45059 0.0492019 0)
(-0.454129 0.00810473 0)
(-0.457643 -0.0331811 0)
(-0.461173 -0.0746438 0)
(-0.464691 -0.116281 0)
(-0.46817 -0.158065 0)
(-0.471563 -0.199942 0)
(-0.474806 -0.241829 0)
(-0.477854 -0.283625 0)
(-0.480747 -0.325263 0)
(-0.483746 -0.366843 0)
(-0.487498 -0.408848 0)
(-0.493173 -0.452425 0)
(-0.502353 -0.499493 0)
(-0.516332 -0.552246 0)
(-0.534621 -0.611515 0)
(-0.552946 -0.673936 0)
(-0.562035 -0.729049 0)
(-0.548916 -0.758702 0)
(-0.501576 -0.741048 0)
(-0.415728 -0.659568 0)
(-0.3005 -0.514519 0)
(-0.179014 -0.330949 0)
(-0.0804148 -0.154818 0)
(-0.0231554 -0.0305535 0)
(-0.0012962 0.0279123 0)
(0.00136731 0.0284232 0)
(-0.00537779 0.126147 0)
(-0.0429589 0.250091 0)
(-0.089192 0.339034 0)
(-0.139025 0.424514 0)
(-0.189469 0.505187 0)
(-0.237688 0.573152 0)
(-0.280638 0.621844 0)
(-0.315971 0.647767 0)
(-0.342467 0.65084 0)
(-0.360222 0.633956 0)
(-0.370546 0.602005 0)
(-0.375567 0.560599 0)
(-0.377639 0.514815 0)
(-0.378762 0.468312 0)
(-0.380221 0.423059 0)
(-0.382556 0.37962 0)
(-0.385754 0.337715 0)
(-0.389537 0.296768 0)
(-0.393585 0.256251 0)
(-0.39766 0.21582 0)
(-0.401639 0.175302 0)
(-0.405493 0.134638 0)
(-0.409245 0.093823 0)
(-0.412926 0.0528588 0)
(-0.41656 0.0117431 0)
(-0.42022 -0.0295334 0)
(-0.423958 -0.0709737 0)
(-0.427756 -0.112599 0)
(-0.431594 -0.15441 0)
(-0.435429 -0.196387 0)
(-0.439178 -0.238475 0)
(-0.442728 -0.28057 0)
(-0.445955 -0.322524 0)
(-0.448804 -0.364197 0)
(-0.451447 -0.40562 0)
(-0.454529 -0.4473 0)
(-0.459395 -0.490637 0)
(-0.46801 -0.538138 0)
(-0.482093 -0.592743 0)
(-0.501106 -0.655451 0)
(-0.519639 -0.721274 0)
(-0.526168 -0.775528 0)
(-0.505567 -0.794183 0)
(-0.445915 -0.751127 0)
(-0.346978 -0.631765 0)
(-0.225505 -0.44765 0)
(-0.112128 -0.242335 0)
(-0.0363627 -0.0761331 0)
(-0.00423543 0.0131198 0)
(0.00145593 0.0280329 0)
(-0.00452037 0.149732 0)
(-0.0402572 0.291388 0)
(-0.0843959 0.38594 0)
(-0.131179 0.472897 0)
(-0.177478 0.552208 0)
(-0.220588 0.615954 0)
(-0.257845 0.657981 0)
(-0.287421 0.675739 0)
(-0.308665 0.670376 0)
(-0.322197 0.646003 0)
(-0.329685 0.608423 0)
(-0.333345 0.563628 0)
(-0.335324 0.516488 0)
(-0.337189 0.470046 0)
(-0.33974 0.425532 0)
(-0.34312 0.382916 0)
(-0.347099 0.341596 0)
(-0.351345 0.300918 0)
(-0.355595 0.260422 0)
(-0.359708 0.219877 0)
(-0.363651 0.179212 0)
(-0.367457 0.138426 0)
(-0.371189 0.0975395 0)
(-0.374889 0.056559 0)
(-0.378584 0.0154726 0)
(-0.382342 -0.0257423 0)
(-0.386223 -0.0671015 0)
(-0.390216 -0.108643 0)
(-0.394309 -0.150392 0)
(-0.398479 -0.19236 0)
(-0.40267 -0.234537 0)
(-0.40678 -0.276868 0)
(-0.410654 -0.319228 0)
(-0.414101 -0.36142 0)
(-0.416976 -0.403225 0)
(-0.419379 -0.444604 0)
(-0.421982 -0.486132 0)
(-0.426358 -0.529598 0)
(-0.434913 -0.578306 0)
(-0.44969 -0.636017 0)
(-0.469627 -0.70334 0)
(-0.487287 -0.772019 0)
(-0.488135 -0.820788 0)
(-0.455311 -0.818303 0)
(-0.379265 -0.736007 0)
(-0.267361 -0.567659 0)
(-0.146601 -0.345531 0)
(-0.0533008 -0.137427 0)
(-0.00822486 -0.00889066 0)
(0.00146843 0.0261092 0)
(-0.00329104 0.17102 0)
(-0.0358554 0.330075 0)
(-0.0768006 0.429719 0)
(-0.119653 0.51726 0)
(-0.161237 0.594358 0)
(-0.199076 0.653342 0)
(-0.230923 0.688621 0)
(-0.255446 0.698653 0)
(-0.272465 0.685776 0)
(-0.282962 0.655182 0)
(-0.288761 0.613351 0)
(-0.291966 0.566383 0)
(-0.294377 0.51873 0)
(-0.297113 0.472735 0)
(-0.300569 0.428957 0)
(-0.304639 0.386932 0)
(-0.309012 0.345897 0)
(-0.3134 0.305233 0)
(-0.317633 0.264597 0)
(-0.321663 0.22387 0)
(-0.325521 0.18305 0)
(-0.329276 0.14217 0)
(-0.332998 0.101252 0)
(-0.336732 0.0602946 0)
(-0.340492 0.0192727 0)
(-0.344335 -0.0218489 0)
(-0.348326 -0.0630947 0)
(-0.352461 -0.104514 0)
(-0.356725 -0.146145 0)
(-0.361113 -0.188022 0)
(-0.365596 -0.230169 0)
(-0.370114 -0.272582 0)
(-0.374548 -0.315207 0)
(-0.37871 -0.357896 0)
(-0.382351 -0.400392 0)
(-0.385248 -0.442386 0)
(-0.387456 -0.48379 0)
(-0.389737 -0.525346 0)
(-0.394008 -0.569477 0)
(-0.403179 -0.620596 0)
(-0.41938 -0.683198 0)
(-0.440171 -0.756218 0)
(-0.454832 -0.825309 0)
(-0.445344 -0.859612 0)
(-0.394815 -0.820339 0)
(-0.300054 -0.682163 0)
(-0.180308 -0.458759 0)
(-0.0734234 -0.214788 0)
(-0.0135083 -0.0398934 0)
(0.00138321 0.0221732 0)
(-0.00177908 0.189035 0)
(-0.030026 0.365039 0)
(-0.0668811 0.469493 0)
(-0.105156 0.557013 0)
(-0.141703 0.631402 0)
(-0.17432 0.685486 0)
(-0.201185 0.714329 0)
(-0.221395 0.717382 0)
(-0.235124 0.698082 0)
(-0.243547 0.662517 0)
(-0.248461 0.617614 0)
(-0.251721 0.569362 0)
(-0.254734 0.521677 0)
(-0.258217 0.476222 0)
(-0.262285 0.433015 0)
(-0.266711 0.391315 0)
(-0.2712 0.350325 0)
(-0.275544 0.309519 0)
(-0.279668 0.268677 0)
(-0.283591 0.227765 0)
(-0.287378 0.186825 0)
(-0.291107 0.145893 0)
(-0.294845 0.104984 0)
(-0.298631 0.0640826 0)
(-0.302466 0.0231491 0)
(-0.306393 -0.0178609 0)
(-0.310486 -0.0589771 0)
(-0.314744 -0.100258 0)
(-0.319143 -0.141747 0)
(-0.323686 -0.183492 0)
(-0.328362 -0.225535 0)
(-0.33314 -0.267911 0)
(-0.337952 -0.310623 0)
(-0.342668 -0.353612 0)
(-0.347067 -0.396696 0)
(-0.350842 -0.43954 0)
(-0.353708 -0.481734 0)
(-0.355723 -0.52319 0)
(-0.35786 -0.565024 0)
(-0.362546 -0.610709 0)
(-0.373222 -0.666125 0)
(-0.391533 -0.735899 0)
(-0.412229 -0.814604 0)
(-0.419911 -0.877454 0)
(-0.393739 -0.881314 0)
(-0.320704 -0.783683 0)
(-0.209702 -0.574992 0)
(-0.0951435 -0.306188 0)
(-0.0203066 -0.0815511 0)
(0.00124188 0.0157435 0)
(-8.88162e-05 0.203004 0)
(-0.0230761 0.395361 0)
(-0.0551358 0.504591 0)
(-0.0883907 0.591781 0)
(-0.119762 0.663299 0)
(-0.147338 0.712689 0)
(-0.169696 0.735703 0)
(-0.186285 0.732723 0)
(-0.197499 0.708138 0)
(-0.204555 0.668741 0)
(-0.209084 0.621698 0)
(-0.212617 0.572748 0)
(-0.216182 0.525243 0)
(-0.220188 0.480256 0)
(-0.224582 0.437406 0)
(-0.229113 0.395808 0)
(-0.233546 0.354707 0)
(-0.237762 0.313691 0)
(-0.241755 0.27264 0)
(-0.245582 0.231579 0)
(-0.249321 0.190563 0)
(-0.253043 0.149622 0)
(-0.256809 0.108755 0)
(-0.260652 0.0679336 0)
(-0.264563 0.0271076 0)
(-0.268572 -0.0137761 0)
(-0.272764 -0.0547502 0)
(-0.277145 -0.0958817 0)
(-0.281676 -0.137219 0)
(-0.286363 -0.178815 0)
(-0.291199 -0.220722 0)
(-0.296169 -0.262994 0)
(-0.301239 -0.305674 0)
(-0.306332 -0.348771 0)
(-0.3113 -0.392208 0)
(-0.315884 -0.435748 0)
(-0.319719 -0.478947 0)
(-0.322479 -0.521296 0)
(-0.324312 -0.562824 0)
(-0.326592 -0.605418 0)
(-0.332469 -0.654238 0)
(-0.345736 -0.716808 0)
(-0.36633 -0.795966 0)
(-0.384114 -0.876899 0)
(-0.378284 -0.918915 0)
(-0.328379 -0.867119 0)
(-0.232044 -0.687248 0)
(-0.11632 -0.407662 0)
(-0.0286183 -0.135003 0)
(0.0011066 0.00631161 0)
(0.00167015 0.212375 0)
(-0.0153223 0.420314 0)
(-0.0420466 0.534527 0)
(-0.0699991 0.621362 0)
(-0.0961826 0.690129 0)
(-0.11896 0.735302 0)
(-0.137272 0.753307 0)
(-0.150826 0.745339 0)
(-0.160118 0.716575 0)
(-0.166279 0.674322 0)
(-0.170686 0.625833 0)
(-0.174523 0.576532 0)
(-0.178491 0.529248 0)
(-0.182785 0.484585 0)
(-0.187276 0.441896 0)
(-0.191743 0.400247 0)
(-0.196027 0.358957 0)
(-0.200082 0.317721 0)
(-0.203945 0.276493 0)
(-0.207689 0.235328 0)
(-0.211389 0.19428 0)
(-0.215106 0.153364 0)
(-0.218894 0.112564 0)
(-0.222785 0.0718439 0)
(-0.226765 0.0311445 0)
(-0.230846 -0.00959562 0)
(-0.235133 -0.0504105 0)
(-0.239644 -0.0913784 0)
(-0.244318 -0.132552 0)
(-0.249163 -0.173987 0)
(-0.254169 -0.215743 0)
(-0.259327 -0.257882 0)
(-0.264617 -0.300465 0)
(-0.269997 -0.343547 0)
(-0.275378 -0.387133 0)
(-0.280584 -0.431108 0)
(-0.285307 -0.475141 0)
(-0.289121 -0.518643 0)
(-0.291705 -0.561038 0)
(-0.29345 -0.602763 0)
(-0.296414 -0.647178 0)
(-0.304635 -0.701942 0)
(-0.32153 -0.775489 0)
(-0.34305 -0.864164 0)
(-0.351985 -0.935848 0)
(-0.323877 -0.930077 0)
(-0.245824 -0.78968 0)
(-0.134913 -0.51419 0)
(-0.0380559 -0.200026 0)
(0.000956508 -0.00658706 0)
(0.00339215 0.216843 0)
(-0.00707334 0.439315 0)
(-0.0280616 0.558961 0)
(-0.0505429 0.64567 0)
(-0.0716021 0.712041 0)
(-0.0898361 0.753671 0)
(-0.104497 0.767616 0)
(-0.115473 0.755739 0)
(-0.123261 0.723823 0)
(-0.128811 0.679524 0)
(-0.133198 0.630085 0)
(-0.137269 0.580608 0)
(-0.141465 0.533494 0)
(-0.145844 0.489 0)
(-0.150265 0.446323 0)
(-0.154563 0.404533 0)
(-0.158651 0.363033 0)
(-0.162531 0.321603 0)
(-0.166264 0.280242 0)
(-0.169924 0.239016 0)
(-0.173578 0.197971 0)
(-0.177277 0.157107 0)
(-0.181069 0.116398 0)
(-0.18499 0.0757986 0)
(-0.189026 0.0352479 0)
(-0.193163 -0.00532422 0)
(-0.197537 -0.0459562 0)
(-0.202183 -0.0867376 0)
(-0.207015 -0.127728 0)
(-0.212038 -0.168988 0)
(-0.217241 -0.210577 0)
(-0.222613 -0.252563 0)
(-0.22814 -0.295016 0)
(-0.233795 -0.338015 0)
(-0.239526 -0.381617 0)
(-0.245221 -0.425807 0)
(-0.25066 -0.470396 0)
(-0.255473 -0.514902 0)
(-0.259188 -0.558562 0)
(-0.261579 -0.600883 0)
(-0.263542 -0.643318 0)
(-0.268181 -0.69185 0)
(-0.280267 -0.757154 0)
(-0.300918 -0.845196 0)
(-0.318784 -0.936483 0)
(-0.309218 -0.97262 0)
(-0.250791 -0.87818 0)
(-0.149448 -0.620666 0)
(-0.0478956 -0.274874 0)
(0.000653975 -0.0233916 0)
(0.0049358 0.216224 0)
(0.00136623 0.45203 0)
(-0.0135787 0.577637 0)
(-0.0305012 0.664695 0)
(-0.0465312 0.7292 0)
(-0.0604483 0.768097 0)
(-0.0717694 0.779003 0)
(-0.0804937 0.764284 0)
(-0.0870416 0.730149 0)
(-0.0921257 0.684469 0)
(-0.0964941 0.634422 0)
(-0.100691 0.584841 0)
(-0.10495 0.537804 0)
(-0.109259 0.493343 0)
(-0.113496 0.450577 0)
(-0.117559 0.408609 0)
(-0.121419 0.366914 0)
(-0.125112 0.325328 0)
(-0.128705 0.283878 0)
(-0.132266 0.242632 0)
(-0.135855 0.20162 0)
(-0.139513 0.160833 0)
(-0.143287 0.120234 0)
(-0.147218 0.0797777 0)
(-0.151293 0.0394035 0)
(-0.155469 -0.000965913 0)
(-0.159916 -0.0413873 0)
(-0.164699 -0.0819493 0)
(-0.169702 -0.122729 0)
(-0.174922 -0.163788 0)
(-0.18035 -0.20519 0)
(-0.185973 -0.247001 0)
(-0.191775 -0.289299 0)
(-0.197738 -0.332172 0)
(-0.203825 -0.375711 0)
(-0.209964 -0.419968 0)
(-0.216008 -0.464872 0)
(-0.221676 -0.510099 0)
(-0.22653 -0.554949 0)
(-0.230091 -0.598519 0)
(-0.232423 -0.640824 0)
(-0.235333 -0.685523 0)
(-0.243273 -0.742709 0)
(-0.260575 -0.824678 0)
(-0.282312 -0.925762 0)
(-0.287037 -0.996658 0)
(-0.247708 -0.950498 0)
(-0.159193 -0.722613 0)
(-0.0573121 -0.356809 0)
(-8.08273e-06 -0.0445218 0)
(0.00614745 0.210753 0)
(0.00963345 0.458014 0)
(0.00107929 0.590469 0)
(-0.010272 0.678448 0)
(-0.0213736 0.741762 0)
(-0.0311503 0.77881 0)
(-0.0393453 0.787724 0)
(-0.0460198 0.771199 0)
(-0.0514688 0.735694 0)
(-0.0561331 0.689184 0)
(-0.0604351 0.638773 0)
(-0.0646435 0.589098 0)
(-0.068835 0.542038 0)
(-0.0729584 0.497502 0)
(-0.0769326 0.454588 0)
(-0.0807154 0.412436 0)
(-0.0843221 0.370577 0)
(-0.0878071 0.328881 0)
(-0.0912378 0.287386 0)
(-0.0946764 0.246153 0)