/*--------------------------------*- C++ -*----------------------------------*\
  =========                 |
  \\      /  F ield         | OpenFOAM: The Open Source CFD Toolbox
   \\    /   O peration     | Website:  https://openfoam.org
    \\  /    A nd           | Version:  7
     \\/     M anipulation  |
\*---------------------------------------------------------------------------*/
FoamFile
{
    version     2.0;
    format      ascii;
    class       volScalarField;
    location    "700";
    object      p;
}
// * * * * * * * * * * * * * * * * * * * * * * * * * * * * * * * * * * * * * //

dimensions      [0 2 -2 0 0 0 0];

internalField   nonuniform List<scalar> 
2500
(
9.5771e-07
7.28432e-05
-6.93325e-06
-0.000305797
-0.000780271
-0.00136791
-0.00202854
-0.00275764
-0.00358094
-0.00453912
-0.00567225
-0.00701022
-0.00856993
-0.0103511
-0.0123303
-0.0144532
-0.0166278
-0.0187222
-0.0205715
-0.0219933
-0.0228127
-0.0228902
-0.0221504
-0.0206094
-0.018393
-0.0157274
-0.012934
-0.0104302
-0.00867816
-0.00811597
-0.00907717
-0.0116994
-0.0158708
-0.0212962
-0.0275164
-0.0339699
-0.0401278
-0.0455887
-0.0501209
-0.0536493
-0.0562235
-0.0579782
-0.0590879
-0.0597285
-0.0600519
-0.0601743
-0.0601736
-0.0600924
-0.0599531
-0.059814
-6.72642e-05
5.70326e-06
-7.80877e-05
-0.0003746
-0.000827064
-0.00137131
-0.00197222
-0.00263126
-0.00337705
-0.00424989
-0.00528865
-0.00652325
-0.00797439
-0.00964983
-0.0115379
-0.0136017
-0.0157705
-0.0179324
-0.0199346
-0.0215932
-0.0227157
-0.0231319
-0.0227279
-0.0214793
-0.0194809
-0.0169496
-0.0142224
-0.0117348
-0.00996787
-0.00937883
-0.0103169
-0.0129419
-0.0171706
-0.0226541
-0.0288901
-0.0353307
-0.0414212
-0.0467205
-0.0509888
-0.0541984
-0.056467
-0.0579759
-0.0589186
-0.0594678
-0.0597598
-0.0598918
-0.0599259
-0.0598914
-0.0597899
-0.0596582
-1.70206e-05
5.16677e-05
-5.52915e-05
-0.000377825
-0.000830296
-0.00133694
-0.00186759
-0.00243509
-0.00308051
-0.00385141
-0.00479191
-0.00594241
-0.00734095
-0.00902199
-0.0110055
-0.0132804
-0.0157861
-0.0184011
-0.0209426
-0.0231841
-0.024886
-0.0258343
-0.0258774
-0.0249639
-0.0231858
-0.0207706
-0.018055
-0.0154728
-0.013517
-0.0126682
-0.0133089
-0.0156381
-0.0196115
-0.0249281
-0.0310794
-0.0374441
-0.043444
-0.0486365
-0.0527406
-0.0556902
-0.057615
-0.0587604
-0.0593799
-0.0596782
-0.0598001
-0.0598351
-0.05983
-0.0597946
-0.0596987
-0.0595544
0.000230367
0.000268367
0.000103843
-0.000277532
-0.000753373
-0.00123473
-0.00170066
-0.00218333
-0.00274381
-0.00345319
-0.00438489
-0.00561844
-0.00723874
-0.00932281
-0.0119135
-0.0149906
-0.0184509
-0.0221058
-0.0256993
-0.0289405
-0.0315448
-0.0332727
-0.0339593
-0.0335406
-0.0320886
-0.0298057
-0.0270042
-0.0241052
-0.0216038
-0.0200069
-0.0197527
-0.0211214
-0.0241629
-0.0286647
-0.034177
-0.0400969
-0.0458017
-0.0507719
-0.0547115
-0.0575303
-0.0592791
-0.0601692
-0.0604817
-0.0604766
-0.0603385
-0.0601771
-0.0600429
-0.0599371
-0.0598071
-0.0596423
0.000709877
0.000679654
0.000420364
-4.18738e-05
-0.000553101
-0.00102702
-0.00145814
-0.00190651
-0.00247287
-0.00327925
-0.00446275
-0.0061713
-0.00854419
-0.0116769
-0.0155837
-0.0201735
-0.0252497
-0.0305311
-0.0356872
-0.0403768
-0.0442853
-0.0471554
-0.0488087
-0.0491606
-0.0482408
-0.0461947
-0.0432873
-0.0399036
-0.0365159
-0.0336394
-0.0317668
-0.0312868
-0.032402
-0.0350699
-0.0389907
-0.0436597
-0.0484768
-0.0528806
-0.0564708
-0.0590595
-0.0606797
-0.0614876
-0.0616743
-0.0614898
-0.0611535
-0.0608085
-0.0605287
-0.0603271
-0.0601508
-0.059974
0.00146527
0.0013311
0.000951618
0.000399957
-0.000166227
-0.000672791
-0.00114448
-0.0016942
-0.00249132
-0.00374209
-0.00567224
-0.00849584
-0.0123685
-0.0173409
-0.0233331
-0.0301364
-0.0374415
-0.0448766
-0.0520483
-0.0585766
-0.0641247
-0.0684218
-0.0712803
-0.0726013
-0.0723831
-0.0707098
-0.0677792
-0.0639119
-0.0595157
-0.0550661
-0.051066
-0.047987
-0.0461955
-0.0458785
-0.0469905
-0.0492485
-0.05219
-0.0552853
-0.0580668
-0.0602242
-0.0616367
-0.0623524
-0.0625352
-0.0623479
-0.061962
-0.0615366
-0.061171
-0.0609026
-0.0606974
-0.060526
0.00253498
0.00227202
0.00176315
0.0011116
0.000454615
-0.000164775
-0.000834809
-0.00175127
-0.00318373
-0.00544239
-0.00882915
-0.0135731
-0.0197707
-0.0273549
-0.0361005
-0.0456589
-0.0556056
-0.0654875
-0.0748626
-0.0833312
-0.0905587
-0.0962893
-0.100351
-0.102653
-0.10319
-0.102013
-0.0992478
-0.0951288
-0.0899583
-0.0841093
-0.0780136
-0.0721374
-0.0669389
-0.0628078
-0.0599966
-0.058563
-0.0583488
-0.0590154
-0.0601354
-0.0613065
-0.0622402
-0.0627969
-0.0629752
-0.0628628
-0.0625636
-0.062189
-0.0618387
-0.06157
-0.0613744
-0.0612293
0.00392531
0.00352624
0.00288715
0.00211342
0.00129804
0.00041313
-0.000726718
-0.0024308
-0.00508427
-0.00908109
-0.0147366
-0.0222064
-0.0314431
-0.0422019
-0.054083
-0.066593
-0.079205
-0.0914094
-0.102751
-0.112854
-0.121431
-0.128283
-0.133285
-0.136377
-0.137577
-0.136943
-0.134549
-0.13054
-0.125099
-0.118456
-0.1109
-0.10278
-0.0945092
-0.0865439
-0.079345
-0.0733131
-0.0687125
-0.0656074
-0.0638408
-0.0630801
-0.0629211
-0.0630028
-0.0630801
-0.0630463
-0.0628974
-0.0626748
-0.0624413
-0.0622506
-0.0621106
-0.06201
0.0055814
0.00505316
0.00427887
0.00334041
0.002242
0.000845267
-0.00116211
-0.00421616
-0.00879413
-0.015304
-0.0239748
-0.0347914
-0.0474918
-0.0616177
-0.0765916
-0.0917966
-0.106645
-0.120626
-0.133331
-0.144461
-0.153822
-0.161303
-0.166846
-0.170433
-0.172107
-0.171967
-0.170057
-0.166454
-0.161244
-0.154528
-0.146433
-0.137128
-0.126861
-0.115977
-0.104942
-0.0943254
-0.0847477
-0.0767678
-0.0707475
-0.0667377
-0.0644604
-0.063418
-0.0630766
-0.0630216
-0.0630225
-0.0630032
-0.0629588
-0.0629122
-0.0628673
-0.0628223
0.00735267
0.00670946
0.00578881
0.00460362
0.00302493
0.000773684
-0.00260223
-0.00764354
-0.0148494
-0.0245363
-0.0367396
-0.0511927
-0.0673792
-0.0846282
-0.102219
-0.119472
-0.135814
-0.150806
-0.164147
-0.175658
-0.185251
-0.192908
-0.198635
-0.20245
-0.204416
-0.204657
-0.203211
-0.200119
-0.195413
-0.189113
-0.181229
-0.171773
-0.160795
-0.148426
-0.134938
-0.12081
-0.10675
-0.0936509
-0.0824337
-0.0738061
-0.0680183
-0.0647704
-0.0633612
-0.0629996
-0.0630749
-0.0632565
-0.0634368
-0.0635749
-0.0636501
-0.0636648
0.00898101
0.00824181
0.00713927
0.00557435
0.00324971
-0.00026774
-0.00555324
-0.0131886
-0.0235909
-0.0368719
-0.0527851
-0.0707694
-0.0900592
-0.109819
-0.129263
-0.147741
-0.16478
-0.180076
-0.193468
-0.204898
-0.214375
-0.221944
-0.227655
-0.231547
-0.233683
-0.23419
-0.233103
-0.230452
-0.226254
-0.220502
-0.213156
-0.204149
-0.193395
-0.180826
-0.166457
-0.150488
-0.133412
-0.116093
-0.0997436
-0.085699
-0.075031
-0.0681338
-0.0645641
-0.0632951
-0.0632224
-0.0635655
-0.0639643
-0.0643
-0.0645051
-0.06458
0.0101129
0.00928255
0.00793098
0.00580904
0.00243192
-0.00277666
-0.0104642
-0.0211588
-0.0350828
-0.0520502
-0.0714853
-0.092539
-0.114253
-0.135719
-0.156192
-0.175143
-0.192257
-0.207391
-0.220517
-0.231671
-0.240919
-0.248338
-0.25399
-0.257916
-0.260169
-0.260859
-0.260012
-0.25766
-0.253822
-0.248497
-0.241651
-0.233207
-0.223038
-0.210977
-0.196856
-0.180583
-0.162281
-0.142464
-0.122182
-0.103012
-0.0867509
-0.0748127
-0.0676157
-0.0643975
-0.0636808
-0.0640469
-0.0646423
-0.0651702
-0.0655073
-0.0656454
0.0103196
0.00938387
0.00769215
0.00481441
8.28719e-05
-0.00718493
-0.0176312
-0.031626
-0.0491017
-0.0695212
-0.0919832
-0.11541
-0.138748
-0.161126
-0.181936
-0.20083
-0.217668
-0.232448
-0.245236
-0.256121
-0.265187
-0.272511
-0.278148
-0.282129
-0.284487
-0.285314
-0.284621
-0.282441
-0.2788
-0.27371
-0.267163
-0.25911
-0.249453
-0.238027
-0.224606
-0.208934
-0.190818
-0.170312
-0.147966
-0.125063
-0.103619
-0.0859237
-0.0736562
-0.0670422
-0.0647652
-0.0648096
-0.0655539
-0.0662659
-0.0667434
-0.0669567
0.00915656
0.00809013
0.00595656
0.00213594
-0.00419597
-0.0137706
-0.0271367
-0.0444145
-0.0651873
-0.0885627
-0.113367
-0.138389
-0.162594
-0.185249
-0.205934
-0.224495
-0.240943
-0.255372
-0.267894
-0.278609
-0.287595
-0.294909
-0.30059
-0.304657
-0.307123
-0.308064
-0.307481
-0.305401
-0.301851
-0.296853
-0.290417
-0.282531
-0.273146
-0.262156
-0.249375
-0.23453
-0.217288
-0.197361
-0.17474
-0.150055
-0.124909
-0.101858
-0.0836979
-0.0721793
-0.066994
-0.0660193
-0.0667501
-0.0676543
-0.0682964
-0.0686102
0.00624776
0.0050182
0.00235065
-0.00255436
-0.0106343
-0.0226031
-0.0388351
-0.0591385
-0.0827325
-0.108411
-0.134814
-0.160711
-0.185182
-0.207687
-0.228013
-0.246166
-0.262257
-0.276427
-0.288794
-0.299445
-0.308434
-0.315797
-0.321559
-0.325724
-0.328295
-0.329336
-0.328844
-0.326838
-0.323341
-0.318373
-0.311952
-0.304087
-0.294769
-0.283957
-0.271547
-0.257343
-0.24103
-0.222196
-0.200458
-0.17577
-0.14892
-0.12198
-0.0981747
-0.0807343
-0.071107
-0.0679869
-0.0683033
-0.0693966
-0.0702392
-0.0706958
0.00135457
-6.87164e-05
-0.0033338
-0.00939454
-0.0192497
-0.033532
-0.0523823
-0.0752712
-0.10108
-0.128363
-0.155677
-0.181867
-0.206193
-0.228323
-0.24822
-0.265999
-0.281824
-0.295838
-0.308142
-0.318794
-0.327827
-0.33526
-0.341104
-0.345359
-0.348021
-0.349149
-0.34874
-0.346805
-0.34336
-0.338421
-0.332002
-0.324116
-0.314774
-0.303976
-0.29169
-0.277822
-0.262168
-0.244367
-0.223919
-0.200341
-0.173596
-0.144778
-0.116656
-0.0932434
-0.0779311
-0.0712363
-0.0703783
-0.071558
-0.0726487
-0.0733042
-0.00557544
-0.00721351
-0.0110991
-0.0183073
-0.0298455
-0.0462154
-0.067293
-0.0922225
-0.119604
-0.14784
-0.175501
-0.201572
-0.225516
-0.247188
-0.266677
-0.28416
-0.299807
-0.313739
-0.326028
-0.336705
-0.345785
-0.353275
-0.359184
-0.363509
-0.366244
-0.367442
-0.367108
-0.365244
-0.361862
-0.356971
-0.35058
-0.342699
-0.333337
-0.322509
-0.310224
-0.296466
-0.281152
-0.264063
-0.244776
-0.222679
-0.19719
-0.168381
-0.137915
-0.109563
-0.0880992
-0.0764429
-0.0732935
-0.074241
-0.0756386
-0.0765418
-0.0143942
-0.0162538
-0.0207397
-0.0290138
-0.0420448
-0.0601734
-0.0830085
-0.109406
-0.137759
-0.166404
-0.193995
-0.219691
-0.243147
-0.264363
-0.283504
-0.300764
-0.316294
-0.330181
-0.342467
-0.353162
-0.36227
-0.369794
-0.375744
-0.380116
-0.382904
-0.384158
-0.383888
-0.382091
-0.378777
-0.373952
-0.36762
-0.359784
-0.350449
-0.339625
-0.327332
-0.313592
-0.298409
-0.281704
-0.263227
-0.242461
-0.218645
-0.191129
-0.160307
-0.12883
-0.101769
-0.0842502
-0.077508
-0.0776063
-0.0793325
-0.0805205
-0.0247735
-0.0268459
-0.0318743
-0.0410765
-0.0553458
-0.0748515
-0.0989577
-0.126288
-0.155102
-0.183744
-0.210991
-0.236181
-0.259126
-0.279926
-0.29878
-0.31587
-0.331312
-0.345162
-0.357435
-0.368129
-0.377242
-0.384778
-0.390747
-0.395148
-0.397975
-0.39927
-0.399054
-0.397317
-0.39407
-0.389316
-0.383059
-0.375299
-0.366035
-0.355271
-0.34302
-0.32931
-0.314183
-0.297657
-0.27965
-0.25985
-0.237592
-0.211928
-0.18225
-0.149696
-0.118494
-0.0950345
-0.0835272
-0.081884
-0.083836
-0.085353
-0.0362518
-0.0385133
-0.0439998
-0.0539594
-0.0691839
-0.0896799
-0.114604
-0.142411
-0.171291
-0.199647
-0.226395
-0.251031
-0.273489
-0.293925
-0.31254
-0.32949
-0.344853
-0.358658
-0.370901
-0.381575
-0.390675
-0.398206
-0.404179
-0.408597
-0.411452
-0.412778
-0.412605
-0.41092
-0.407732
-0.403047
-0.396868
-0.389196
-0.380029
-0.369366
-0.357214
-0.34359
-0.328538
-0.312121
-0.294371
-0.275181
-0.254119
-0.230294
-0.202573
-0.170703
-0.137308
-0.108739
-0.0917784
-0.0873668
-0.0892396
-0.0911586
-0.0482937
-0.0507078
-0.0565529
-0.0670888
-0.0829888
-0.104119
-0.129475
-0.157398
-0.186068
-0.213968
-0.24015
-0.264241
-0.286256
-0.306375
-0.324786
-0.341609
-0.356892
-0.370639
-0.382838
-0.393477
-0.402553
-0.410069
-0.416038
-0.420465
-0.423341
-0.424688
-0.424552
-0.42291
-0.419773
-0.415149
-0.409042
-0.401457
-0.392393
-0.381852
-0.369833
-0.356348
-0.341428
-0.325138
-0.307564
-0.288746
-0.268504
-0.246199
-0.220627
-0.190608
-0.156967
-0.124837
-0.102459
-0.0943343
-0.0956355
-0.0980494
-0.0603492
-0.0628689
-0.0689688
-0.0799066
-0.0962287
-0.11769
-0.143171
-0.170955
-0.199241
-0.226604
-0.252217
-0.275802
-0.297424
-0.317268
-0.335498
-0.3522
-0.367398
-0.381078
-0.393224
-0.403822
-0.412868
-0.420366
-0.426327
-0.430758
-0.433649
-0.435012
-0.434905
-0.433297
-0.430203
-0.42563
-0.419586
-0.412078
-0.403113
-0.392693
-0.380821
-0.367504
-0.352763
-0.33665
-0.31926
-0.300707
-0.281009
-0.259834
-0.236203
-0.208564
-0.176238
-0.14243
-0.115422
-0.102978
-0.103132
-0.106082
-0.0719043
-0.0744786
-0.0807282
-0.0919108
-0.108439
-0.12999
-0.155374
-0.182852
-0.210666
-0.237478
-0.262556
-0.285691
-0.306972
-0.326578
-0.344643
-0.36123
-0.376341
-0.389952
-0.402043
-0.412598
-0.421615
-0.429095
-0.435048
-0.439482
-0.442385
-0.443757
-0.443673
-0.442093
-0.439031
-0.434499
-0.428505
-0.421063
-0.412182
-0.401871
-0.39014
-0.376997
-0.362459
-0.346565
-0.329398
-0.311095
-0.29179
-0.271419
-0.249355
-0.224123
-0.194102
-0.160427
-0.130152
-0.11331
-0.111785
-0.115196
-0.0825406
-0.0850754
-0.0913912
-0.10268
-0.11924
-0.140699
-0.165834
-0.192916
-0.220235
-0.246528
-0.271131
-0.293879
-0.31487
-0.334269
-0.352188
-0.368667
-0.383693
-0.397239
-0.409279
-0.419799
-0.428792
-0.436258
-0.442204
-0.446639
-0.449552
-0.45093
-0.450864
-0.449303
-0.446265
-0.441761
-0.435805
-0.428411
-0.419596
-0.409376
-0.397767
-0.384784
-0.370448
-0.35479
-0.337881
-0.319852
-0.300886
-0.281104
-0.260233
-0.237134
-0.209842
-0.177744
-0.145843
-0.125088
-0.121497
-0.125152
-0.0919411
-0.0942828
-0.100598
-0.111887
-0.12834
-0.149575
-0.17437
-0.20102
-0.227865
-0.253698
-0.277902
-0.300329
-0.321081
-0.340304
-0.358095
-0.374478
-0.389431
-0.402921
-0.414921
-0.425414
-0.434392
-0.441852
-0.447797
-0.452234
-0.455156
-0.456541
-0.456485
-0.454938
-0.451913
-0.447424
-0.441489
-0.434124
-0.425352
-0.415197
-0.403684
-0.390835
-0.376678
-0.361249
-0.344608
-0.326875
-0.308243
-0.288936
-0.268962
-0.247611
-0.223035
-0.193446
-0.161523
-0.137785
-0.131926
-0.135526
-0.0998577
-0.101871
-0.108078
-0.119289
-0.135533
-0.15645
-0.180852
-0.207073
-0.233496
-0.258946
-0.282829
-0.305004
-0.325565
-0.344647
-0.362332
-0.378635
-0.39353
-0.406981
-0.418957
-0.429438
-0.438414
-0.445878
-0.451829
-0.456273
-0.459204
-0.4606
-0.46055
-0.45901
-0.455987
-0.4515
-0.445566
-0.438207
-0.429452
-0.419331
-0.407877
-0.395125
-0.381111
-0.365878
-0.349489
-0.332052
-0.313758
-0.294873
-0.275595
-0.255615
-0.233475
-0.206829
-0.176213
-0.150651
-0.142529
-0.145783
-0.106124
-0.107722
-0.113677
-0.124736
-0.140702
-0.161242
-0.185225
-0.211037
-0.237094
-0.262241
-0.285883
-0.307871
-0.328287
-0.347259
-0.364864
-0.38111
-0.395968
-0.4094
-0.421371
-0.431859
-0.440849
-0.448332
-0.454302
-0.45876
-0.461703
-0.463111
-0.463063
-0.461528
-0.458497
-0.453997
-0.448045
-0.440668
-0.431899
-0.421774
-0.410339
-0.397637
-0.383717
-0.368632
-0.35245
-0.335282
-0.317311
-0.298816
-0.280107
-0.261189
-0.241089
-0.217421
-0.189045
-0.162843
-0.152671
-0.15535
-0.110674
-0.111797
-0.117354
-0.128166
-0.143795
-0.163904
-0.187445
-0.212865
-0.238614
-0.26354
-0.287027
-0.308903
-0.329235
-0.348139
-0.365691
-0.381905
-0.396751
-0.410187
-0.422176
-0.432691
-0.441713
-0.449228
-0.455225
-0.459701
-0.462652
-0.464064
-0.464012
-0.462481
-0.459435
-0.454907
-0.448919
-0.441499
-0.432683
-0.422519
-0.411059
-0.398357
-0.384473
-0.369471
-0.353434
-0.336477
-0.318786
-0.300644
-0.282417
-0.264326
-0.245859
-0.224941
-0.199328
-0.173544
-0.161722
-0.163688
-0.113534
-0.114153
-0.119175
-0.129629
-0.144854
-0.164479
-0.187539
-0.212561
-0.238033
-0.262792
-0.286191
-0.30802
-0.32832
-0.347202
-0.364741
-0.380957
-0.395823
-0.409297
-0.421338
-0.431914
-0.441001
-0.44858
-0.454636
-0.459161
-0.462148
-0.463583
-0.463507
-0.461946
-0.45885
-0.454256
-0.44819
-0.440688
-0.43179
-0.421547
-0.410015
-0.397259
-0.383348
-0.36836
-0.352392
-0.33557
-0.318088
-0.300237
-0.282412
-0.264972
-0.24778
-0.22924
-0.206571
-0.182042
-0.16911
-0.170316
-0.114814
-0.11493
-0.119297
-0.129251
-0.143989
-0.163058
-0.185583
-0.210179
-0.235377
-0.260004
-0.283366
-0.305204
-0.325525
-0.344428
-0.361991
-0.378242
-0.393159
-0.406701
-0.418824
-0.429491
-0.43867
-0.446337
-0.452473
-0.457065
-0.460103
-0.461577
-0.461503
-0.459922
-0.456776
-0.452106
-0.445944
-0.438323
-0.429287
-0.418897
-0.407217
-0.394327
-0.380312
-0.36526
-0.349274
-0.332496
-0.315132
-0.297485
-0.279976
-0.263045
-0.246831
-0.23025
-0.210452
-0.187769
-0.17434
-0.174815
-0.114689
-0.114339
-0.117953
-0.127237
-0.141363
-0.159783
-0.181687
-0.205792
-0.230686
-0.255186
-0.278543
-0.300437
-0.320829
-0.3398
-0.357429
-0.373752
-0.388755
-0.402401
-0.414642
-0.425434
-0.434739
-0.442527
-0.448771
-0.453452
-0.456558
-0.458077
-0.45801
-0.456409
-0.453205
-0.448442
-0.442159
-0.434389
-0.425183
-0.414602
-0.402722
-0.389626
-0.375407
-0.360172
-0.344048
-0.327198
-0.309844
-0.292298
-0.275003
-0.258451
-0.242975
-0.227946
-0.21078
-0.190292
-0.176984
-0.176822
-0.113388
-0.112643
-0.115443
-0.123861
-0.137207
-0.154844
-0.176001
-0.199505
-0.224016
-0.248351
-0.271706
-0.293685
-0.314193
-0.333281
-0.351023
-0.367463
-0.382596
-0.396387
-0.408787
-0.419746
-0.429218
-0.437163
-0.443548
-0.448348
-0.451543
-0.45312
-0.453067
-0.451444
-0.448177
-0.443306
-0.436877
-0.428925
-0.419503
-0.408677
-0.396528
-0.383149
-0.368644
-0.353129
-0.336748
-0.319683
-0.302184
-0.284603
-0.267401
-0.251101
-0.236164
-0.222318
-0.207454
-0.189303
-0.176675
-0.17601
-0.111175
-0.110133
-0.112105
-0.11946
-0.13181
-0.148483
-0.168722
-0.19146
-0.215449
-0.239528
-0.262839
-0.284908
-0.305567
-0.324821
-0.34273
-0.359339
-0.374652
-0.388638
-0.401247
-0.41242
-0.422104
-0.43025
-0.436816
-0.441768
-0.44508
-0.446733
-0.446712
-0.445067
-0.441735
-0.436746
-0.430148
-0.421981
-0.412298
-0.40117
-0.388683
-0.374937
-0.360044
-0.344136
-0.327371
-0.309956
-0.292169
-0.274392
-0.257128
-0.240935
-0.226356
-0.213368
-0.200438
-0.184594
-0.173088
-0.172083
-0.108328
-0.107103
-0.108283
-0.114409
-0.125514
-0.140989
-0.160088
-0.181838
-0.205102
-0.228767
-0.251942
-0.274069
-0.294893
-0.314359
-0.332495
-0.349338
-0.364894
-0.379135
-0.392009
-0.403453
-0.413403
-0.4218
-0.428592
-0.433737
-0.4372
-0.438957
-0.438989
-0.437329
-0.433935
-0.428821
-0.422034
-0.413619
-0.403633
-0.392146
-0.379249
-0.365048
-0.349662
-0.333237
-0.31595
-0.298032
-0.279796
-0.261663
-0.244181
-0.227945
-0.213547
-0.201117
-0.189739
-0.176047
-0.165939
-0.164758
-0.105114
-0.10382
-0.104296
-0.10909
-0.118697
-0.132695
-0.150376
-0.170857
-0.193126
-0.216147
-0.239025
-0.261129
-0.282108
-0.301824
-0.320253
-0.337406
-0.353283
-0.367855
-0.381066
-0.392848
-0.403128
-0.411836
-0.41891
-0.424296
-0.427952
-0.429846
-0.429955
-0.428297
-0.424848
-0.419603
-0.412612
-0.403923
-0.39359
-0.381688
-0.368308
-0.35356
-0.337573
-0.320504
-0.302549
-0.283969
-0.265114
-0.246452
-0.228584
-0.212152
-0.197792
-0.185637
-0.175415
-0.16362
-0.154981
-0.153764
-0.101768
-0.100502
-0.100408
-0.103858
-0.111754
-0.123965
-0.139897
-0.158769
-0.179704
-0.201777
-0.224124
-0.246062
-0.267144
-0.287128
-0.305916
-0.323471
-0.339768
-0.354767
-0.368407
-0.380612
-0.3913
-0.400391
-0.407811
-0.413496
-0.417394
-0.419467
-0.419685
-0.418051
-0.414558
-0.409186
-0.40198
-0.392991
-0.382274
-0.369901
-0.355965
-0.340579
-0.323879
-0.306035
-0.287266
-0.267862
-0.248218
-0.228854
-0.210426
-0.193633
-0.179162
-0.167075
-0.157596
-0.147354
-0.140023
-0.138841
-0.098477
-0.0973067
-0.0968055
-0.0990046
-0.105062
-0.115186
-0.128995
-0.145857
-0.165053
-0.185798
-0.207302
-0.228861
-0.249938
-0.270181
-0.289386
-0.307442
-0.324278
-0.339826
-0.354012
-0.366748
-0.377942
-0.387503
-0.395347
-0.4014
-0.4056
-0.407901
-0.408267
-0.406689
-0.40317
-0.397677
-0.390251
-0.380943
-0.369806
-0.35691
-0.342348
-0.326234
-0.308713
-0.289968
-0.270241
-0.249858
-0.229261
-0.209028
-0.189876
-0.172556
-0.157795
-0.145638
-0.13648
-0.12737
-0.120964
-0.119761
-0.09537
-0.0943357
-0.093596
-0.0947298
-0.0989416
-0.106737
-0.118031
-0.132431
-0.14942
-0.168391
-0.188664
-0.209553
-0.230456
-0.250901
-0.270561
-0.28922
-0.306729
-0.322974
-0.33785
-0.351252
-0.363074
-0.373215
-0.381579
-0.388082
-0.392656
-0.395244
-0.395807
-0.394322
-0.390803
-0.385203
-0.377557
-0.367916
-0.356329
-0.342864
-0.327612
-0.31069
-0.292248
-0.272485
-0.25167
-0.230167
-0.20847
-0.187218
-0.16719
-0.149185
-0.133956
-0.121557
-0.11233
-0.103853
-0.0977946
-0.0962863
-0.0925249
-0.0916449
-0.0908199
-0.0911338
-0.0936183
-0.0989427
-0.107357
-0.118811
-0.133076
-0.149769
-0.168361
-0.188225
-0.208715
-0.229252
-0.249368
-0.268715
-0.287037
-0.304145
-0.319883
-0.334115
-0.346716
-0.357568
-0.366568
-0.373623
-0.378655
-0.381603
-0.382421
-0.381078
-0.377588
-0.371903
-0.364046
-0.354065
-0.342007
-0.327938
-0.311945
-0.294147
-0.274704
-0.25383
-0.231821
-0.209086
-0.186169
-0.163774
-0.142736
-0.123895
-0.108018
-0.0951219
-0.0855015
-0.077029
-0.0705639
-0.0680749
-0.089974
-0.0892567
-0.0884689
-0.0882211
-0.0891936
-0.0920283
-0.0972707
-0.105306
-0.116303
-0.130179
-0.146603
-0.165035
-0.18482
-0.20528
-0.225806
-0.245895
-0.265157
-0.283296
-0.300083
-0.315331
-0.328884
-0.340606
-0.350381
-0.358106
-0.363698
-0.36709
-0.368233
-0.367091
-0.363669
-0.35793
-0.349882
-0.339566
-0.327032
-0.312339
-0.295575
-0.276862
-0.256368
-0.234325
-0.211059
-0.18702
-0.162806
-0.139176
-0.117015
-0.0971872
-0.0804547
-0.0667525
-0.0564227
-0.0471658
-0.039474
-0.0347266
-0.0877086
-0.0871669
-0.0865065
-0.0859205
-0.0856287
-0.0860608
-0.0879534
-0.0921651
-0.0993756
-0.109901
-0.123663
-0.140244
-0.158997
-0.179167
-0.200003
-0.220842
-0.241137
-0.260457
-0.278473
-0.29493
-0.309623
-0.32239
-0.333094
-0.341626
-0.347895
-0.351831
-0.35338
-0.352508
-0.349208
-0.343459
-0.335253
-0.324627
-0.31163
-0.296324
-0.278793
-0.259165
-0.237618
-0.214402
-0.189874
-0.164518
-0.138979
-0.114059
-0.0906699
-0.0696829
-0.0518332
-0.0369767
-0.0255624
-0.0145919
-0.00516261
0.00381813
-0.0856722
-0.0853361
-0.0848729
-0.0840999
-0.0827445
-0.0809102
-0.0794024
-0.079523
-0.0825326
-0.0892429
-0.0998963
-0.114234
-0.131636
-0.151282
-0.172291
-0.193836
-0.215202
-0.23581
-0.255206
-0.273043
-0.289057
-0.303041
-0.314837
-0.32432
-0.331393
-0.335982
-0.338033
-0.33751
-0.334401
-0.328703
-0.320392
-0.309505
-0.296094
-0.280221
-0.261975
-0.241489
-0.218952
-0.194633
-0.16891
-0.142297
-0.115463
-0.089223
-0.0644866
-0.0420974
-0.0227442
-0.00624136
0.00684578
0.0205945
0.0315286
0.0473711
-0.0837437
-0.0836682
-0.0834603
-0.0825558
-0.0802226
-0.0762365
-0.0713907
-0.0673478
-0.0659424
-0.0685366
-0.0757581
-0.0875461
-0.10333
-0.122235
-0.143261
-0.165424
-0.187843
-0.20978
-0.230647
-0.249991
-0.267467
-0.282819
-0.295851
-0.306422
-0.314424
-0.319779
-0.322434
-0.322352
-0.319519
-0.313945
-0.30561
-0.294545
-0.280807
-0.264466
-0.245616
-0.224399
-0.201015
-0.175747
-0.148985
-0.12125
-0.0932027
-0.0656305
-0.0393855
-0.0152324
0.00622917
0.025242
0.0412101
0.0591928
0.0715427
0.0980175
-0.0817292
-0.0819807
-0.0820609
-0.0809698
-0.0776028
-0.0715167
-0.0634863
-0.0554378
-0.0496922
-0.0481403
-0.0518218
-0.0609103
-0.0749112
-0.0929121
-0.113809
-0.136476
-0.159874
-0.183114
-0.205468
-0.22637
-0.245388
-0.262201
-0.276575
-0.28834
-0.297375
-0.303598
-0.306954
-0.307411
-0.304952
-0.299595
-0.29134
-0.280215
-0.266284
-0.249626
-0.230349
-0.208603
-0.184598
-0.15862
-0.131054
-0.102394
-0.0732509
-0.0443239
-0.0163445
0.0100707
0.0344874
0.0573355
0.0782235
0.102996
0.120008
0.163072
-0.0794154
-0.0800221
-0.0803874
-0.0789453
-0.0743453
-0.066137
-0.0551634
-0.0435122
-0.0338411
-0.0284645
-0.0287997
-0.0352674
-0.0474749
-0.0644999
-0.0851584
-0.108205
-0.132466
-0.15691
-0.180682
-0.203104
-0.223655
-0.241947
-0.257698
-0.270708
-0.280839
-0.288001
-0.292138
-0.29322
-0.291239
-0.286207
-0.278154
-0.267114
-0.253163
-0.236395
-0.216927
-0.194917
-0.170578
-0.144187
-0.116094
-0.0867297
-0.056598
-0.0262442
0.00379845
0.0331436
0.0616105
0.0899487
0.118164
0.153348
0.183137
0.247846
-0.0769068
-0.0777542
-0.0782495
-0.0762015
-0.0701512
-0.059726
-0.0460653
-0.0314199
-0.0185561
-0.0100324
-0.00755158
-0.0117486
-0.0223443
-0.0384382
-0.0588043
-0.0821142
-0.107086
-0.132574
-0.157614
-0.181426
-0.203406
-0.223102
-0.240182
-0.254414
-0.265642
-0.273764
-0.278724
-0.280497
-0.27908
-0.274494
-0.266775
-0.255972
-0.242183
-0.225522
-0.206116
-0.184123
-0.159743
-0.133222
-0.104852
-0.0749608
-0.0438907
-0.0119571
0.0206128
0.053813
0.0878881
0.12403
0.162551
0.212212
0.259726
0.338314
-0.0754888
-0.0761847
-0.0763093
-0.0730819
-0.0652012
-0.0525524
-0.0364815
-0.0194977
-0.00437617
0.00638406
0.0108879
0.00835632
-0.00100838
-0.0163444
-0.0364279
-0.0598928
-0.0853914
-0.111699
-0.137766
-0.162736
-0.185935
-0.206851
-0.225111
-0.240451
-0.252694
-0.261729
-0.267497
-0.269974
-0.26917
-0.265115
-0.257865
-0.247464
-0.233995
-0.217604
-0.19844
-0.176658
-0.152434
-0.125967
-0.0974674
-0.0671346
-0.0351081
-0.00139414
0.0342395
0.0724605
0.114436
0.162498
0.217714
0.288846
0.349228
0.424217
-0.0796648
-0.0789623
-0.0773492
-0.0717365
-0.0611894
-0.0459552
-0.027639
-0.0088418
0.00765861
0.0196526
0.0253778
0.0238359
0.0152158
0.000356971
-0.0195413
-0.043111
-0.0689766
-0.0958693
-0.122688
-0.148523
-0.172648
-0.194511
-0.2137
-0.229929
-0.243002
-0.252799
-0.259256
-0.262354
-0.262104
-0.258547
-0.251744
-0.241786
-0.22875
-0.212715
-0.193838
-0.172295
-0.14825
-0.121854
-0.0932381
-0.0624629
-0.0294431
0.00618708
0.0452776
0.0895436
0.141905
0.207585
0.291382
0.403317
0.495604
0.603205
-0.103095
-0.0952704
-0.0868199
-0.0760291
-0.0616668
-0.0433411
-0.0226969
-0.00231152
0.0153693
0.0281364
0.0343032
0.0331849
0.024974
0.0104614
-0.00919917
-0.0326739
-0.0586027
-0.0857127
-0.112884
-0.139177
-0.163836
-0.186275
-0.20606
-0.222878
-0.236521
-0.246857
-0.253816
-0.257376
-0.257549
-0.254377
-0.247927
-0.238282
-0.225541
-0.209812
-0.19122
-0.169902
-0.146007
-0.119659
-0.0909182
-0.0597225
-0.0257686
0.0116885
0.0541651
0.104583
0.168071
0.254127
0.375428
0.555499
0.767496
1.10768
-0.189926
-0.112166
-0.0805741
-0.0713436
-0.0580675
-0.0387006
-0.0170149
0.00397652
0.0217667
0.0341827
0.039822
0.0382034
0.0296
0.0148319
-0.00495447
-0.0284617
-0.0543757
-0.0814622
-0.108628
-0.134948
-0.159672
-0.182213
-0.202129
-0.219102
-0.232916
-0.243434
-0.250581
-0.25433
-0.254694
-0.251712
-0.245449
-0.235988
-0.223429
-0.207881
-0.189462
-0.168304
-0.144539
-0.118262
-0.0894787
-0.0580276
-0.0234416
0.0153048
0.060205
0.115003
0.186258
0.286318
0.435077
0.680168
1.07921
1.8284
)
;

boundaryField
{
    movingWall
    {
        type            zeroGradient;
    }
    fixedWalls
    {
        type            zeroGradient;
    }
    frontAndBack
    {
        type            empty;
    }
}


// ************************************************************************* //
