/*--------------------------------*- C++ -*----------------------------------*\
  =========                 |
  \\      /  F ield         | OpenFOAM: The Open Source CFD Toolbox
   \\    /   O peration     | Website:  https://openfoam.org
    \\  /    A nd           | Version:  7
     \\/     M anipulation  |
\*---------------------------------------------------------------------------*/
FoamFile
{
    version     2.0;
    format      ascii;
    class       surfaceScalarField;
    location    "700";
    object      phi;
}
// * * * * * * * * * * * * * * * * * * * * * * * * * * * * * * * * * * * * * //

dimensions      [0 3 -1 0 0 0 0];

internalField   nonuniform List<scalar> 
4900
(
1.69065e-06
-1.71389e-06
6.22065e-06
-4.53014e-06
1.17155e-05
-5.49492e-06
1.65022e-05
-4.78669e-06
1.97494e-05
-3.24721e-06
2.13879e-05
-1.63856e-06
2.17657e-05
-3.7787e-07
2.12593e-05
5.06319e-07
2.00117e-05
1.24754e-06
1.78586e-05
2.15308e-06
1.44064e-05
3.45209e-06
9.16816e-06
5.2382e-06
1.65243e-06
7.51566e-06
-8.59301e-06
1.02454e-05
-2.19178e-05
1.33247e-05
-3.84849e-05
1.6567e-05
-5.81986e-05
1.97136e-05
-8.06233e-05
2.24247e-05
-0.00010492
2.42971e-05
-0.000129833
2.49124e-05
-0.000153733
2.38999e-05
-0.000174733
2.10004e-05
-0.000190852
1.61186e-05
-0.000200213
9.36123e-06
-0.000201296
1.08224e-06
-0.000193157
-8.13878e-06
-0.000175552
-1.76052e-05
-0.000149
-2.65515e-05
-0.000114795
-3.42049e-05
-7.49619e-05
-3.98334e-05
-3.21513e-05
-4.28106e-05
1.05212e-05
-4.26726e-05
4.97982e-05
-3.9277e-05
8.28262e-05
-3.30281e-05
0.000107428
-2.46015e-05
0.000122336
-1.49082e-05
0.000127434
-5.09841e-06
0.000123802
3.6319e-06
0.000113436
1.03658e-05
9.87283e-05
1.47081e-05
8.20215e-05
1.67067e-05
6.52549e-05
1.67667e-05
4.9775e-05
1.54798e-05
3.63171e-05
1.34579e-05
2.51095e-05
1.12076e-05
1.60448e-05
9.06462e-06
8.89676e-06
7.14803e-06
3.59619e-06
5.30054e-06
5.05833e-07
3.09034e-06
5.05828e-07
4.47038e-06
-6.18444e-06
1.38447e-05
-1.39047e-05
2.43075e-05
-1.59578e-05
3.2895e-05
-1.33742e-05
3.79955e-05
-8.34789e-06
3.92191e-05
-2.86227e-06
3.68475e-05
1.99355e-06
3.11873e-05
6.16641e-06
2.21297e-05
1.0305e-05
9.04604e-06
1.52366e-05
-9.06149e-06
2.15594e-05
-3.32941e-05
2.94707e-05
-6.45518e-05
3.87732e-05
-0.000103274
4.89674e-05
-0.00014923
5.92811e-05
-0.00020136
6.86967e-05
-0.000257716
7.60688e-05
-0.000315585
8.0294e-05
-0.00037177
8.04821e-05
-0.000422934
7.60768e-05
-0.00046594
6.69055e-05
-0.000498108
5.31683e-05
-0.000517384
3.53948e-05
-0.000522427
1.44037e-05
-0.000512691
-8.65365e-06
-0.00048827
-3.25601e-05
-0.000449799
-5.60759e-05
-0.000398482
-7.78693e-05
-0.000336145
-9.65418e-05
-0.000265262
-0.000110716
-0.000188923
-0.000119149
-0.000110703
-0.000120893
-3.4482e-05
-0.000115498
3.56655e-05
-0.000103176
9.60458e-05
-8.49818e-05
0.000143842
-6.27047e-05
0.00017713
-3.83864e-05
0.000195118
-1.43561e-05
0.000198397
7.08664e-06
0.000189063
2.40423e-05
0.000170262
3.55071e-05
0.000145586
4.14423e-05
0.000118445
4.26208e-05
9.16061e-05
4.02972e-05
6.69367e-05
3.5877e-05
4.54258e-05
3.05755e-05
2.74646e-05
2.51092e-05
1.33383e-05
1.94268e-05
3.75662e-06
1.26719e-05
4.26244e-06
5.98573e-06
-1.21703e-05
1.73336e-05
-2.52528e-05
2.87956e-05
-2.742e-05
3.68127e-05
-2.13914e-05
3.95229e-05
-1.10582e-05
3.63375e-05
3.22941e-07
2.71932e-05
1.11377e-05
1.18821e-05
2.14774e-05
-1.03619e-05
3.25488e-05
-4.08165e-05
4.5691e-05
-8.08417e-05
6.15845e-05
-0.00013136
7.99892e-05
-0.000192437
9.98494e-05
-0.000262965
0.000119495
-0.000340596
0.000136913
-0.000421972
0.000150073
-0.000503175
0.000157272
-0.000580251
0.00015737
-0.000649655
0.000149886
-0.000708524
0.000134946
-0.000754775
0.000113157
-0.000787055
8.54477e-05
-0.0008046
5.29396e-05
-0.000807059
1.68634e-05
-0.0007943
-2.1413e-05
-0.000766338
-6.05223e-05
-0.000723483
-9.89307e-05
-0.000666469
-0.000134884
-0.000596531
-0.000166479
-0.000515516
-0.000191732
-0.000425942
-0.000208723
-0.000331005
-0.000215829
-0.000234491
-0.000212012
-0.000140534
-0.000197132
-5.33652e-05
-0.000172151
2.30517e-05
-0.000139122
8.5741e-05
-0.000101076
0.00013291
-6.15248e-05
0.00016359
-2.35938e-05
0.000177924
9.70838e-06
0.000177447
3.59839e-05
0.00016496
5.39288e-05
0.000144012
6.35695e-05
0.000118282
6.60262e-05
9.10342e-05
6.31252e-05
6.47419e-05
5.68677e-05
4.10659e-05
4.87851e-05
2.12089e-05
3.92838e-05
6.60774e-06
2.7273e-05
1.08702e-05
6.50734e-06
-1.86777e-05
1.75922e-05
-3.63379e-05
2.69421e-05
-3.677e-05
3.07422e-05
-2.51917e-05
2.71868e-05
-7.5029e-06
1.5582e-05
1.19276e-05
-4.60824e-06
3.13278e-05
-3.4399e-05
5.12681e-05
-7.53141e-05
7.34638e-05
-0.00012883
9.9207e-05
-0.000195676
0.00012843
-0.00027527
0.000159583
-0.000365482
0.000190061
-0.000462822
0.000216835
-0.000562974
0.000237065
-0.000661489
0.000248588
-0.000754392
0.000250174
-0.000838545
0.000241522
-0.000911738
0.000223079
-0.000972572
0.000195779
-0.00102022
0.000160805
-0.00105419
0.000119419
-0.00107414
7.28883e-05
-0.00107975
2.24692e-05
-0.00107062
-3.05389e-05
-0.00104646
-8.46868e-05
-0.0010071
-0.000138287
-0.00095262
-0.000189364
-0.00088343
-0.000235669
-0.000800458
-0.000274703
-0.000705334
-0.000303847
-0.000600545
-0.000320619
-0.000489508
-0.000323049
-0.000376496
-0.000310145
-0.00026634
-0.000282307
-0.000163895
-0.000241567
-7.34799e-05
-0.000191491
1.62918e-06
-0.000136634
5.98563e-05
-8.1821e-05
0.000100897
-3.13329e-05
0.000125008
1.18736e-05
0.000133476
4.54603e-05
0.000128807
6.82384e-05
0.000114296
8.05373e-05
9.35255e-05
8.38958e-05
6.98577e-05
8.05355e-05
4.611e-05
7.25328e-05
2.46337e-05
6.076e-05
7.92763e-06
4.39791e-05
1.87978e-05
6.20353e-06
-2.48813e-05
1.48885e-05
-4.50231e-05
1.91915e-05
-4.10731e-05
1.54523e-05
-2.14527e-05
2.12414e-06
5.82515e-06
-2.16779e-05
3.57295e-05
-5.71317e-05
6.67814e-05
-0.000105964
0.0001001
-0.000169798
0.000137298
-0.000249195
0.000178604
-0.000342967
0.000222202
-0.000448092
0.000264708
-0.000560187
0.000302156
-0.000674307
0.000330955
-0.000785774
0.000348532
-0.000890771
0.000353585
-0.00098657
0.000345973
-0.00107146
0.00032641
-0.00114448
0.000296102
-0.00120516
0.000256454
-0.00125324
0.000208889
-0.00128858
0.000154763
-0.00131105
9.53552e-05
-0.00132048
3.18951e-05
-0.00131659
-3.44257e-05
-0.00129903
-0.000102249
-0.00126731
-0.000170006
-0.00122086
-0.000235809
-0.00115916
-0.000297374
-0.0010819
-0.000351958
-0.000989335
-0.000396415
-0.000882557
-0.000427397
-0.00076386
-0.000441746
-0.000636938
-0.000437067
-0.000506852
-0.000412392
-0.000379633
-0.000368786
-0.000261483
-0.000309641
-0.000157703
-0.000240414
-7.18216e-05
-0.000167702
-5.28369e-06
-9.78709e-05
4.24515e-05
-3.58616e-05
7.26298e-05
1.52819e-05
8.68545e-05
5.40137e-05
8.76523e-05
7.97394e-05
7.82312e-05
9.33168e-05
6.21031e-05
9.66636e-05
4.27286e-05
9.19072e-05
2.34026e-05
8.00859e-05
7.60144e-06
5.97802e-05
2.63992e-05
4.89548e-06
-2.97769e-05
8.87017e-06
-4.8998e-05
5.26968e-06
-3.74728e-05
-8.95497e-06
-7.22819e-06
-3.51486e-05
3.20186e-05
-7.44746e-05
7.50554e-05
-0.000128652
0.000120959
-0.000199429
0.000170877
-0.000287359
0.000225228
-0.000390917
0.000282161
-0.000506451
0.000337736
-0.000628896
0.000387154
-0.000752803
0.000426063
-0.000873264
0.000451416
-0.000986479
0.000461747
-0.00108989
0.000456996
-0.00118202
0.000438098
-0.00126215
0.000406547
-0.00133011
0.000364059
-0.00138602
0.00031236
-0.00143019
0.000253066
-0.00146306
0.000187633
-0.00148505
0.000117337
-0.00149646
4.33071e-05
-0.0014974
-3.34841e-05
-0.00148763
-0.000112013
-0.00146654
-0.000191099
-0.00143308
-0.000269273
-0.00138585
-0.000344601
-0.00132329
-0.000414515
-0.00124396
-0.00047575
-0.00114695
-0.000524406
-0.00103247
-0.000556231
-0.000902372
-0.000567162
-0.00076063
-0.000554134
-0.000613367
-0.000516049
-0.000468363
-0.000454645
-0.000333875
-0.000374902
-0.000216973
-0.000284604
-0.000121968
-0.000192876
-4.98217e-05
-0.000108008
1.10017e-06
-3.564e-05
3.33991e-05
2.17147e-05
4.96271e-05
6.35113e-05
5.27429e-05
9.0201e-05
4.61601e-05
0.000103246
3.35812e-05
0.000104486
1.8867e-05
9.48001e-05
6.11192e-06
7.25352e-05
3.25111e-05
2.27024e-06
-3.20472e-05
-9.2811e-07
-4.57998e-05
-1.50302e-05
-2.33709e-05
-4.22274e-05
1.99688e-05
-8.37031e-05
7.34941e-05
-0.000140892
0.000132244
-0.000215493
0.00019556
-0.000308182
0.000263566
-0.000417419
0.000334465
-0.000539255
0.000403996
-0.000668139
0.00046662
-0.000798137
0.000517152
-0.00092398
0.000551905
-0.00104165
0.000569085
-0.00114849
0.000568591
-0.00124304
0.000551542
-0.00132471
0.000519769
-0.00139359
0.000475425
-0.00145024
0.000420712
-0.00149558
0.000357702
-0.00153073
0.000288217
-0.00155686
0.000213758
-0.00157502
0.000135496
-0.00158603
5.43156e-05
-0.00159037
-2.91401e-05
-0.00158806
-0.000114325
-0.00157856
-0.000200599
-0.00156069
-0.000287137
-0.00153264
-0.00037266
-0.00149194
-0.00045521
-0.00143574
-0.000531948
-0.00136111
-0.000599036
-0.00126566
-0.000651681
-0.00114835
-0.000684474
-0.00101037
-0.000692117
-0.00085588
-0.000670536
-0.000692295
-0.00061823
-0.000529658
-0.000537539
-0.000378985
-0.000435278
-0.000249757
-0.000322104
-0.000147457
-0.000210308
-7.2553e-05
-0.000110544
-2.17449e-05
-2.90935e-05
9.28997e-06
3.24764e-05
2.44105e-05
7.50804e-05
2.74005e-05
0.000100256
2.2217e-05
0.00010967
1.30397e-05
0.000103977
4.21081e-06
8.1364e-05
3.6722e-05
-1.92297e-06
-3.01243e-05
-1.46703e-05
-3.30527e-05
-4.1353e-05
3.31162e-06
-8.32611e-05
6.18768e-05
-0.000141407
0.00013164
-0.000217188
0.000208025
-0.000311384
0.000289756
-0.000422709
0.000374891
-0.000547266
0.000459023
-0.000679249
0.000535979
-0.000812268
0.000599639
-0.000940562
0.000645446
-0.00105969
0.000671032
-0.00116669
0.000676086
-0.00125994
0.000661844
-0.00133891
0.000630513
-0.00140393
0.000584791
-0.00145602
0.000527508
-0.00149666
0.000461351
-0.00152762
0.000388665
-0.00155073
0.000311331
-0.0015677
0.000230727
-0.00157997
0.000147764
-0.00158864
6.29859e-05
-0.00159444
-2.33415e-05
-0.00159763
-0.000111133
-0.00159796
-0.000200273
-0.00159451
-0.000290586
-0.00158562
-0.000381553
-0.00156874
-0.000472091
-0.00154041
-0.000560274
-0.00149642
-0.000643027
-0.0014322
-0.000715902
-0.0013436
-0.000773069
-0.00122803
-0.000807693
-0.00108573
-0.000812836
-0.000921002
-0.000782955
-0.00074271
-0.000715831
-0.000563589
-0.000614399
-0.000398009
-0.000487683
-0.000258371
-0.000349946
-0.000151452
-0.000217463
-7.69018e-05
-0.000103644
-2.9259e-05
-1.51665e-05
-2.09638e-06
4.79178e-05
9.95734e-06
8.82026e-05
1.17197e-05
0.000107907
7.78597e-06
0.000107911
2.59929e-06
8.65507e-05
3.93212e-05
-7.75136e-06
-2.2373e-05
-3.19166e-05
-8.88757e-06
-7.2527e-05
4.39219e-05
-0.00012984
0.000119189
-0.000204676
0.000206476
-0.000297763
0.000301112
-0.000408206
0.000400198
-0.000532492
0.000499177
-0.000664843
0.000591375
-0.000798528
0.000669664
-0.000927234
0.000728345
-0.00104595
0.000764159
-0.00115125
0.000776336
-0.00124127
0.000766099
-0.00131544
0.000736014
-0.00137432
0.000689398
-0.00141935
0.000629824
-0.00145257
0.00056072
-0.00147628
0.000485067
-0.00149283
0.000405216
-0.00150434
0.000322837
-0.00151259
0.000238979
-0.00151901
0.000154184
-0.00152465
6.86285e-05
-0.00153025
-1.77484e-05
-0.0015362
-0.000105177
-0.00154258
-0.000193898
-0.00154899
-0.000284174
-0.00155444
-0.000376102
-0.00155707
-0.000469459
-0.00155393
-0.000563422
-0.00154076
-0.000656192
-0.0015121
-0.00074456
-0.00146167
-0.000823503
-0.00138334
-0.000886018
-0.00127269
-0.00092349
-0.00112879
-0.000926856
-0.00095598
-0.00088864
-0.000764769
-0.000805611
-0.000571043
-0.000681408
-0.000393025
-0.000527965
-0.000246245
-0.000364243
-0.000138448
-0.000211441
-6.77415e-05
-8.58733e-05
-2.59226e-05
6.09879e-06
-4.32908e-06
6.6609e-05
3.85974e-06
9.97183e-05
4.27719e-06
0.000107494
1.71335e-06
8.91145e-05
4.10346e-05
-1.49421e-05
-7.431e-06
-5.16844e-05
2.78546e-05
-0.000106518
9.8755e-05
-0.000178766
0.000191438
-0.000268779
0.000296489
-0.000376012
0.000408345
-0.000497593
0.00052178
-0.000628122
0.000629706
-0.000760743
0.000723996
-0.000888638
0.000797558
-0.00100615
0.000845853
-0.00110928
0.000867291
-0.00119579
0.000862845
-0.00126503
0.000835339
-0.00131773
0.000788723
-0.00135574
0.000727402
-0.00138158
0.000655662
-0.00139808
0.00057722
-0.00140797
0.000494964
-0.00141364
0.000410886
-0.00141699
0.000326178
-0.00141942
0.00024141
-0.00142195
0.000156722
-0.00142531
7.19875e-05
-0.00143
-1.30602e-05
-0.00143641
-9.87691e-05
-0.00144481
-0.000185501
-0.00145533
-0.000273655
-0.0014678
-0.000363633
-0.00148149
-0.000455768
-0.00149475
-0.000550161
-0.00150457
-0.000646369
-0.00150622
-0.000742914
-0.00149311
-0.000836608
-0.00145726
-0.000921872
-0.00139038
-0.000990365
-0.00128592
-0.00103132
-0.0011416
-0.00103297
-0.000961865
-0.000985343
-0.00075924
-0.000884034
-0.00055328
-0.000733925
-0.000366448
-0.000551075
-0.000217232
-0.000360657
-0.000113373
-0.000189732
-5.02119e-05
-5.70626e-05
-1.63535e-05
3.27506e-05
-1.29849e-06
8.46632e-05
2.74446e-06
0.000103451
1.64734e-06
9.02116e-05
4.26819e-05
-2.29959e-05
1.55649e-05
-7.2463e-05
7.73216e-05
-0.000140732
0.000167024
-0.000226287
0.000276993
-0.000328603
0.000398804
-0.000445549
0.000525291
-0.000572454
0.000648685
-0.000702682
0.000759934
-0.000829078
0.000850391
-0.000945335
0.000913816
-0.0010468
0.000947316
-0.00113073
0.000951221
-0.00119626
0.000928381
-0.00124423
0.000883301
-0.00127677
0.000821265
-0.00129689
0.000747528
-0.00130791
0.000666677
-0.00131292
0.000582233
-0.00131451
0.000496554
-0.0013146
0.000410969
-0.00131445
0.000326032
-0.00131485
0.000241812
-0.00131624
0.000158114
-0.00131888
7.463e-05
-0.00132298
-8.96598e-06
-0.00132877
-9.29806e-05
-0.00133656
-0.000177708
-0.00134676
-0.000263451
-0.0013598
-0.000350597
-0.00137594
-0.000439628
-0.00139499
-0.000531113
-0.0014158
-0.000625561
-0.00143565
-0.000723064
-0.00144962
-0.000822639
-0.0014502
-0.000921285
-0.00142764
-0.00101292
-0.00137132
-0.00108764
-0.00127236
-0.00113192
-0.00112709
-0.00113061
-0.000940349
-0.00107077
-0.000727304
-0.00094697
-0.000511954
-0.000766424
-0.000321276
-0.000551334
-0.00017587
-0.000335139
-8.16401e-05
-0.000151293
-2.96335e-05
-1.9256e-05
-5.40364e-06
6.04333e-05
2.48842e-06
9.55584e-05
2.18009e-06
9.05199e-05
4.4862e-05
-3.11704e-05
4.67353e-05
-9.24398e-05
0.000138591
-0.000172434
0.000247017
-0.000268679
0.000373238
-0.000379513
0.000509639
-0.00050125
0.000647027
-0.000627894
0.000775329
-0.000752269
0.000884308
-0.000867534
0.000965656
-0.000968308
0.00101459
-0.00105121
0.00103022
-0.00111498
0.00101499
-0.00116035
0.00097375
-0.00118966
0.000912606
-0.00120629
0.000837892
-0.00121398
0.000755227
-0.00121624
0.00066893
-0.00121584
0.000581831
-0.00121472
0.000495435
-0.00121402
0.000410271
-0.00121427
0.000326286
-0.00121562
0.000243161
-0.00121802
0.000160511
-0.00122138
7.79855e-05
-0.00122565
-4.69151e-06
-0.00123092
-8.7711e-05
-0.0012374
-0.000171224
-0.0012455
-0.000255353
-0.0012558
-0.000340295
-0.00126905
-0.000426387
-0.00128597
-0.000514184
-0.00130704
-0.000604497
-0.00133181
-0.000698288
-0.00135814
-0.000796312
-0.00138113
-0.000898293
-0.00139248
-0.00100157
-0.00138064
-0.00109948
-0.00133247
-0.0011801
-0.00123661
-0.00122647
-0.00108818
-0.00121921
-0.000893163
-0.00114199
-0.000670498
-0.000989089
-0.000449558
-0.000772275
-0.000261706
-0.00052299
-0.000127813
-0.000285186
-4.91717e-05
-9.78974e-05
-1.1287e-05
2.25485e-05
2.15267e-06
8.21188e-05
2.87919e-06
8.97934e-05
4.77412e-05
-3.85907e-05
8.5326e-05
-0.000109886
0.000209887
-0.000199139
0.00033627
-0.000302804
0.000476903
-0.000418021
0.000624856
-0.000539831
0.000768837
-0.000661489
0.000896987
-0.000775882
0.000998701
-0.000876932
0.00106671
-0.000960478
0.00109814
-0.00102463
0.00109438
-0.00106978
0.00106014
-0.0010982
0.00100218
-0.00111353
0.000927932
-0.00111988
0.000844241
-0.00112111
0.000756455
-0.00112025
0.000668077
-0.00111933
0.000580908
-0.00111939
0.000495496
-0.00112078
0.00041166
-0.00112341
0.000328921
-0.00112703
0.000246772
-0.00113132
0.000164803
-0.00113606
8.27256e-05
-0.00114111
3.63438e-07
-0.00114646
-8.23633e-05
-0.0011522
-0.000165483
-0.00115857
-0.000248981
-0.001166
-0.000332869
-0.00117514
-0.000417243
-0.00118695
-0.000502379
-0.00120258
-0.000588866
-0.00122313
-0.000677735
-0.00124899
-0.000770456
-0.00127871
-0.000868568
-0.00130766
-0.00097263
-0.00132675
-0.00108039
-0.00132246
-0.00118439
-0.00127888
-0.00127005
-0.00118226
-0.00131582
-0.00102713
-0.00129712
-0.000821889
-0.00119433
-0.000590899
-0.00100327
-0.00036992
-0.000743969
-0.000193725
-0.000461381
-8.00042e-05
-0.000211618
-2.19609e-05
-3.54946e-05
2.40014e-07
5.99179e-05
3.27032e-06
8.67631e-05
5.10115e-05
-4.44897e-05
0.000129816
-0.000123374
0.000288771
-0.000218933
0.000431829
-0.000326487
0.000584457
-0.000442094
0.000740463
-0.000559942
0.000886684
-0.000673081
0.00101013
-0.000774923
0.00110054
-0.000860464
0.00115225
-0.000926965
0.00116464
-0.000974141
0.00114155
-0.00100395
0.00108994
-0.00101998
0.00101821
-0.00102662
0.000934568
-0.00102806
0.000845685
-0.00102766
0.000756051
-0.00102757
0.000667992
-0.00102886
0.000582192
-0.00103174
0.000498379
-0.00103599
0.000415907
-0.00104119
0.000334122
-0.00104694
0.000252526
-0.00105294
0.0001708
-0.00105898
8.87672e-05
-0.00106496
6.34619e-06
-0.00107085
-7.64726e-05
-0.00107668
-0.000159659
-0.00108251
-0.000243151
-0.00108851
-0.000326867
-0.00109502
-0.000410733
-0.00110266
-0.000494742
-0.00111244
-0.000579087
-0.00112581
-0.000664359
-0.00114448
-0.000751792
-0.00116967
-0.000843375
-0.00120078
-0.000941518
-0.00123339
-0.00104778
-0.00125749
-0.00116029
-0.0012573
-0.00127024
-0.00121392
-0.0013592
-0.00111147
-0.00139958
-0.000945106
-0.00136069
-0.000727832
-0.00122054
-0.000491597
-0.000980204
-0.00027901
-0.000673968
-0.000125353
-0.000365275
-3.96884e-05
-0.000121159
-4.40088e-06
2.46305e-05
3.02808e-06
7.93342e-05
5.40396e-05
-4.82972e-05
0.000178113
-0.00013192
0.000372393
-0.000230637
0.000530546
-0.000338641
0.000692461
-0.000451149
0.000852971
-0.000561934
0.00099747
-0.000664292
0.00111248
-0.000752483
0.00118873
-0.00082277
0.00122253
-0.000873911
0.00121578
-0.000907148
0.00117479
-0.000925739
0.00110853
-0.000934082
0.00102656
-0.000936674
0.000937159
-0.000937215
0.000846225
-0.000938137
0.000756973
-0.000940601
0.000670455
-0.000944808
0.0005864
-0.00095043
0.000504001
-0.00095696
0.000422437
-0.000963938
0.0003411
-0.000971038
0.000259626
-0.000978073
0.000177835
-0.000984959
9.56538e-05
-0.000991677
1.30641e-05
-0.000998229
-6.99204e-05
-0.00100462
-0.00015327
-0.00101083
-0.000236937
-0.00101686
-0.00032084
-0.00102274
-0.000404857
-0.00102864
-0.000488842
-0.00103504
-0.000572688
-0.00104292
-0.000656478
-0.00105394
-0.000740766
-0.00107035
-0.000826964
-0.00109422
-0.000917651
-0.00112573
-0.00101627
-0.00116057
-0.00112545
-0.00118741
-0.0012434
-0.00118758
-0.00135902
-0.00113901
-0.00144815
-0.00102453
-0.00147517
-0.000842232
-0.00140284
-0.000612742
-0.00120969
-0.000377791
-0.000908919
-0.00018563
-0.000557436
-6.59161e-05
-0.000240873
-1.23434e-05
-2.89423e-05
2.03717e-06
6.49536e-05
5.60768e-05
-4.96845e-05
0.000227797
-0.000135034
0.000457743
-0.000233828
0.00062934
-0.000339201
0.000797834
-0.000445817
0.000959587
-0.000547433
0.00109909
-0.000637921
0.00120297
-0.000712585
0.0012634
-0.000769021
0.00127897
-0.000807403
0.00125416
-0.000830246
0.00119763
-0.000841659
0.00111994
-0.000846259
0.00103116
-0.000848113
0.000939014
-0.000850039
0.000848151
-0.000853452
0.000760386
-0.000858643
0.000675646
-0.000865258
0.000593015
-0.000872727
0.000511469
-0.00088054
0.00043025
-0.000888359
0.000348919
-0.000896019
0.000267286
-0.000903479
0.000185295
-0.000910767
0.000102942
-0.000917934
2.02313e-05
-0.000925023
-6.28314e-05
-0.000932048
-0.000146245
-0.000938982
-0.000230003
-0.000945754
-0.000314067
-0.000952253
-0.000398358
-0.000958366
-0.000482729
-0.000964084
-0.00056697
-0.000969703
-0.000650859
-0.000976122
-0.000734347
-0.000985152
-0.000817935
-0.000999547
-0.000903256
-0.00102222
-0.000993593
-0.00105406
-0.00109361
-0.00109039
-0.00120708
-0.00111773
-0.00133168
-0.00111382
-0.00145206
-0.0010535
-0.00153549
-0.000920137
-0.00153621
-0.000718251
-0.00141158
-0.000480026
-0.00114714
-0.000258134
-0.000779327
-0.00010146
-0.000397547
-2.37497e-05
-0.000106653
3.04597e-07
4.08992e-05
5.63814e-05
-4.85655e-05
0.000276363
-0.00013269
0.000541868
-0.000228744
0.000725394
-0.000328917
0.000898007
-0.000427603
0.00105827
-0.000518859
0.00119034
-0.000597346
0.00128146
-0.000659492
0.00132554
-0.000704155
0.00132363
-0.000732707
0.00128271
-0.000748544
0.00121347
-0.000756112
0.00112751
-0.000759742
0.00103479
-0.000762711
0.000941983
-0.00076685
0.00085229
-0.000772694
0.00076623
-0.00077996
0.000682912
-0.000788052
0.000601106
-0.000796413
0.00051983
-0.00080468
0.000438517
-0.000812695
0.000356933
-0.000820443
0.000275034
-0.000827991
0.000192843
-0.000835429
0.000110381
-0.000842843
2.76453e-05
-0.000850296
-5.53786e-05
-0.000857817
-0.000138725
-0.000865398
-0.000222422
-0.000872981
-0.000306484
-0.000880442
-0.000390897
-0.000887585
-0.000475586
-0.00089417
-0.000560385
-0.000900014
-0.000645015
-0.000905223
-0.000729138
-0.0009106
-0.000812558
-0.000918128
-0.000895728
-0.000931126
-0.000980595
-0.000953316
-0.00107142
-0.000985971
-0.00117442
-0.0010233
-0.00129436
-0.00104846
-0.00142689
-0.00103471
-0.00154924
-0.000954661
-0.00161626
-0.000795703
-0.00157054
-0.000574006
-0.00136884
-0.000337044
-0.00101629
-0.000146056
-0.000588535
-3.89963e-05
-0.000213712
-2.30946e-06
4.21235e-06
5.40719e-05
-4.50603e-05
0.000321423
-0.00012523
0.000622037
-0.000216117
0.000816281
-0.00030909
0.000990981
-0.000398513
0.0011477
-0.000478971
0.0012708
-0.000546021
0.00134851
-0.000597177
0.0013767
-0.000632381
0.00135884
-0.00065388
0.00130421
-0.000665512
0.0012251
-0.000671603
0.0011336
-0.000675847
0.00103903
-0.000680613
0.000946749
-0.000686854
0.000858532
-0.000694497
0.000773872
-0.000702985
0.0006914
-0.000711724
0.000609846
-0.00072031
0.000528416
-0.000728566
0.000446773
-0.000736487
0.000364855
-0.00074416
0.000282707
-0.000751701
0.000200383
-0.000759218
0.000117898
-0.000766798
3.52251e-05
-0.000774504
-4.76728e-05
-0.00078237
-0.000130858
-0.000790407
-0.000214384
-0.00079859
-0.000298301
-0.00080684
-0.000382647
-0.000814999
-0.000467426
-0.000822813
-0.000552571
-0.000829932
-0.000637896
-0.000836016
-0.000723054
-0.000841008
-0.000807566
-0.000845661
-0.000891075
-0.0008522
-0.000974056
-0.000864608
-0.00105901
-0.000887404
-0.00115163
-0.000921726
-0.00126003
-0.000959256
-0.00138936
-0.000978088
-0.00153041
-0.000946614
-0.00164773
-0.000837906
-0.00167924
-0.000649147
-0.0015576
-0.000414394
-0.00125104
-0.000197661
-0.000805268
-5.87415e-05
-0.000352632
-5.87678e-06
-4.86522e-05
4.81952e-05
-3.94421e-05
0.000360865
-0.000113254
0.000695849
-0.000196989
0.000900015
-0.000281313
0.00107531
-0.000360738
0.00122712
-0.000430514
0.00134057
-0.000487109
0.0014051
-0.000528998
0.00141859
-0.000556952
0.00138679
-0.000573724
0.00132098
-0.000583192
0.00123457
-0.000589226
0.00113964
-0.000594733
0.00104454
-0.000601235
0.00095325
-0.000609037
0.000866334
-0.000617736
0.000782572
-0.000626738
0.000700403
-0.000635584
0.000618692
-0.000644054
0.000536886
-0.00065213
0.000454849
-0.000659906
0.000372631
-0.000667511
0.000290313
-0.00067507
0.000207942
-0.000682681
0.00012551
-0.000690419
4.2963e-05
-0.000698337
-3.97551e-05
-0.000706465
-0.00012273
-0.000714821
-0.000206028
-0.000723403
-0.00028972
-0.000732174
-0.000373876
-0.000741047
-0.000458554
-0.000749843
-0.000543774
-0.000758259
-0.00062948
-0.000765857
-0.000715457
-0.000772158
-0.000801264
-0.000776976
-0.000886257
-0.000781098
-0.000969933
-0.000787184
-0.00105293
-0.000800077
-0.00113873
-0.000824914
-0.0012352
-0.000861602
-0.00135268
-0.000897226
-0.00149478
-0.000903043
-0.00164191
-0.000843666
-0.00173862
-0.000698194
-0.00170307
-0.000481958
-0.00146728
-0.00025219
-0.00103504
-8.31284e-05
-0.000521693
-1.03773e-05
-0.000121403
3.78178e-05
-3.20829e-05
0.000392948
-9.751e-05
0.000761276
-0.000172545
0.000975051
-0.000247255
0.00115001
-0.000316404
0.00129627
-0.00037597
0.00140014
-0.000423273
0.00145241
-0.000457565
0.00145288
-0.000480155
0.00140938
-0.000493956
0.00133478
-0.000502565
0.00124318
-0.000509214
0.00114629
-0.000516024
0.00105135
-0.000523844
0.00096107
-0.00053258
0.00087507
-0.000541723
0.000791715
-0.000550776
0.000709455
-0.000559451
0.000627368
-0.00056769
0.000545125
-0.000575575
0.000462734
-0.000583244
0.0003803
-0.000590832
0.000297902
-0.000598451
0.000215561
-0.000606184
0.000133243
-0.00061409
5.08691e-05
-0.000622213
-3.16318e-05
-0.000630578
-0.000114365
-0.000639199
-0.000197407
-0.000648082
-0.000280837
-0.000657214
-0.000364744
-0.000666553
-0.000449214
-0.000676003
-0.000534325
-0.000685367
-0.000620115
-0.000694299
-0.000706525
-0.000702269
-0.000793294
-0.000708676
-0.000879851
-0.00071327
-0.00096534
-0.000717045
-0.00104915
-0.000723371
-0.00113241
-0.000738142
-0.00122043
-0.000766625
-0.00132419
-0.000805554
-0.00145586
-0.000834506
-0.00161296
-0.000816971
-0.00175616
-0.000718246
-0.0018018
-0.000533127
-0.0016524
-0.000304367
-0.0012638
-0.000111148
-0.000714911
-1.58141e-05
-0.000216738
2.20037e-05
-2.34068e-05
0.000416355
-7.88042e-05
0.000816673
-0.000143985
0.00104023
-0.000208503
0.00121453
-0.000267416
0.00135518
-0.000317425
0.00145015
-0.000356598
0.00149158
-0.000384752
0.00148104
-0.000403451
0.00142808
-0.000415477
0.00134681
-0.000423937
0.00125164
-0.000431366
0.00115372
-0.000439205
0.00105919
-0.000447832
0.000969698
-0.000456966
0.000884203
-0.000466131
0.00080088
-0.000474977
0.000718301
-0.000483374
0.000635765
-0.000491369
0.00055312
-0.000499096
0.00047046
-0.000506699
0.000387903
-0.000514301
0.000305504
-0.000521995
0.000223255
-0.000529853
0.000141101
-0.000537925
5.89417e-05
-0.000546253
-2.33041e-05
-0.000554853
-0.000105765
-0.000563737
-0.000188523
-0.000572908
-0.000271666
-0.000582358
-0.000355293
-0.000592066
-0.000439506
-0.000601983
-0.000524409
-0.000611999
-0.000610098
-0.000621895
-0.000696628
-0.000631267
-0.000783923
-0.00063949
-0.000871628
-0.00064586
-0.000958969
-0.000650165
-0.00104485
-0.000653873
-0.0011287
-0.000661481
-0.00121282
-0.000680018
-0.00130565
-0.00071352
-0.00142235
-0.000752217
-0.00157426
-0.00076523
-0.00174314
-0.000710566
-0.00185646
-0.000564068
-0.0017989
-0.000349163
-0.0014787
-0.000140811
-0.000923264
-2.2085e-05
-0.000335463
-8.13097e-08
-1.38547e-05
0.000430209
-5.79346e-05
0.000860753
-0.000112435
0.00109473
-0.000166473
0.00126857
-0.000215377
0.00140409
-0.000256527
0.0014913
-0.000288608
0.00152366
-0.000311797
0.00150422
-0.000327662
0.00144394
-0.000338641
0.00135779
-0.000347242
0.00126024
-0.000355329
0.0011618
-0.000363812
0.00106767
-0.000372784
0.00097867
-0.000381917
0.000893337
-0.000390844
0.000809807
-0.000399358
0.000726815
-0.000407443
0.000643851
-0.000415207
0.000560884
-0.000422795
0.000478048
-0.000430341
0.000395449
-0.00043795
0.000313114
-0.000445702
0.000231008
-0.000453663
0.000149062
-0.000461885
6.71634e-05
-0.000470409
-1.47801e-05
-0.000479248
-9.69251e-05
-0.000488412
-0.000179359
-0.000497896
-0.000262181
-0.00050769
-0.000345499
-0.000517775
-0.000429421
-0.00052812
-0.000514064
-0.000538664
-0.000599554
-0.000549281
-0.000686012
-0.00055971
-0.000773494
-0.000569469
-0.000861868
-0.000577824
-0.000950614
-0.000584006
-0.00103866
-0.000588034
-0.00112467
-0.000592294
-0.00120856
-0.000602869
-0.00129508
-0.000627408
-0.00139781
-0.000665799
-0.00153587
-0.000697204
-0.00171174
-0.000679511
-0.00187415
-0.000573955
-0.00190445
-0.000382867
-0.00166979
-0.00016954
-0.00113659
-2.93989e-05
-0.000475604
-2.94802e-05
-3.84638e-06
0.000434056
-3.56654e-05
0.000892572
-7.89015e-05
0.00113797
-0.000122363
0.00131203
-0.000161573
0.0014433
-0.00019451
0.00152424
-0.000220348
0.0015495
-0.000239438
0.00152331
-0.000253165
0.00145767
-0.000263478
0.0013681
-0.000272247
0.00126901
-0.000280746
0.0011703
-0.000289495
0.00107642
-0.000298443
0.000987618
-0.000307305
0.000902199
-0.000315838
0.00081834
-0.000323956
0.000734933
-0.000331715
0.00065161
-0.000339245
0.000568414
-0.000346683
0.000485487
-0.00035415
0.000402915
-0.000361734
0.000320698
-0.000369508
0.000238782
-0.000377535
0.000157089
-0.000385877
7.55057e-05
-0.00039458
-6.07676e-06
-0.00040366
-8.78447e-05
-0.000413121
-0.000169898
-0.000422952
-0.00025235
-0.000433137
-0.000335314
-0.000443653
-0.000418905
-0.000454472
-0.000503245
-0.000465553
-0.000588473
-0.000476818
-0.000674746
-0.000488108
-0.000762204
-0.000499097
-0.000850879
-0.000509199
-0.000940512
-0.000517563
-0.0010303
-0.000523459
-0.00111878
-0.00052748
-0.00120454
-0.00053355
-0.00128901
-0.000549609
-0.00138176
-0.000581994
-0.00150349
-0.000621163
-0.00167257
-0.000631105
-0.00186421
-0.000564499
-0.00197106
-0.000403593
-0.00183069
-0.000194897
-0.00134529
-3.7818e-05
-0.000632684
-6.72982e-05
6.08085e-06
0.000427975
-1.26647e-05
0.000911318
-4.42755e-05
0.00116958
-7.71664e-05
0.00134492
-0.000107002
0.00147313
-0.000132258
0.00154949
-0.000152482
0.00156973
-0.000168058
0.00153889
-0.000180051
0.00146966
-0.000189841
0.00137789
-0.00019867
0.00127784
-0.00020731
0.00117894
-0.000216006
0.00108512
-0.000224659
0.000996271
-0.000233069
0.000910609
-0.000241111
0.000826383
-0.000248788
0.00074261
-0.000256195
0.000659017
-0.000263463
0.000575682
-0.000270718
0.000492742
-0.000278061
0.000410259
-0.000285574
0.000328212
-0.000293325
0.000246533
-0.000301376
0.00016514
-0.000309803
8.39329e-05
-0.000318661
2.78121e-06
-0.000327975
-7.85301e-05
-0.000337747
-0.000160126
-0.000347955
-0.000242141
-0.000358578
-0.000324691
-0.000369589
-0.000407894
-0.000380956
-0.000491877
-0.000392646
-0.000576783
-0.000404602
-0.000662789
-0.00041672
-0.000750086
-0.000428783
-0.000838816
-0.000440372
-0.000928924
-0.000450769
-0.0010199
-0.000459039
-0.00111051
-0.000464707
-0.00119887
-0.000469544
-0.00128417
-0.00047976
-0.00137154
-0.000504408
-0.00147884
-0.000543685
-0.00163329
-0.000571708
-0.00183619
-0.00053911
-0.00200366
-0.000411237
-0.00195857
-0.000215123
-0.0015414
-4.69201e-05
-0.000800887
-0.000114218
1.53195e-05