/*--------------------------------*- C++ -*----------------------------------*\
  =========                 |
  \\      /  F ield         | OpenFOAM: The Open Source CFD Toolbox
   \\    /   O peration     | Website:  https://openfoam.org
    \\  /    A nd           | Version:  7
     \\/     M anipulation  |
\*---------------------------------------------------------------------------*/
FoamFile
{
    version     2.0;
    format      ascii;
    class       volScalarField;
    location    "900";
    object      p;
}
// * * * * * * * * * * * * * * * * * * * * * * * * * * * * * * * * * * * * * //

dimensions      [0 2 -2 0 0 0 0];

internalField   nonuniform List<scalar> 
2500
(
4.9814e-07
7.18034e-05
-8.07675e-06
-0.000306944
-0.000781421
-0.00136906
-0.00202968
-0.00275876
-0.003582
-0.00454008
-0.00567307
-0.00701085
-0.00857033
-0.0103512
-0.0123301
-0.0144528
-0.0166271
-0.0187214
-0.0205706
-0.0219927
-0.0228127
-0.0228912
-0.0221528
-0.0206138
-0.0184001
-0.0157379
-0.0129486
-0.0104497
-0.00870321
-0.00814698
-0.00911425
-0.0117422
-0.0159186
-0.0213482
-0.0275714
-0.0340269
-0.0401856
-0.0456466
-0.0501786
-0.0537064
-0.05628
-0.0580341
-0.0591432
-0.0597834
-0.0601065
-0.0602287
-0.0602279
-0.0601466
-0.0600073
-0.0598682
-6.83037e-05
4.57103e-06
-7.92499e-05
-0.000375766
-0.000828234
-0.00137249
-0.0019734
-0.00263243
-0.00337816
-0.00425093
-0.00528957
-0.00652401
-0.00797495
-0.00965015
-0.0115379
-0.0136015
-0.01577
-0.0179318
-0.0199339
-0.0215927
-0.0227156
-0.0231327
-0.02273
-0.0214832
-0.0194874
-0.0169594
-0.0142364
-0.0117538
-0.00999239
-0.00940941
-0.0103537
-0.0129846
-0.0172185
-0.0227062
-0.0289453
-0.0353877
-0.0414791
-0.0467785
-0.0510462
-0.0542552
-0.0565231
-0.0580314
-0.0589737
-0.0595226
-0.0598144
-0.0599462
-0.0599802
-0.0599456
-0.0598441
-0.0597124
-1.81909e-05
5.04901e-05
-5.64691e-05
-0.000379006
-0.000831489
-0.00133815
-0.00186882
-0.00243632
-0.00308171
-0.00385255
-0.00479295
-0.0059433
-0.00734162
-0.00902238
-0.0110055
-0.01328
-0.0157854
-0.0183999
-0.0209412
-0.0231826
-0.0248848
-0.0258338
-0.0258781
-0.0249663
-0.0231908
-0.0207788
-0.0180674
-0.0154902
-0.0135401
-0.0126975
-0.0133446
-0.01568
-0.0196589
-0.0249801
-0.0311346
-0.0375013
-0.0435021
-0.0486946
-0.0527982
-0.055747
-0.057671
-0.0588158
-0.0594348
-0.0597328
-0.0598545
-0.0598894
-0.0598843
-0.0598487
-0.0597529
-0.0596086
0.000229132
0.000267149
0.000102639
-0.000278737
-0.0007546
-0.00123599
-0.00170196
-0.00218464
-0.00274509
-0.00345439
-0.00438594
-0.00561925
-0.00723919
-0.00932276
-0.0119129
-0.0149893
-0.0184488
-0.0221031
-0.0256962
-0.0289373
-0.0315419
-0.0332705
-0.0339582
-0.0335414
-0.0320918
-0.0298122
-0.0270147
-0.0241206
-0.0216247
-0.020034
-0.0197863
-0.0211615
-0.0242088
-0.0287156
-0.0342316
-0.0401538
-0.0458598
-0.0508301
-0.0547693
-0.0575874
-0.0593353
-0.0602246
-0.0605365
-0.0605311
-0.0603927
-0.0602313
-0.0600971
-0.0599912
-0.0598612
-0.0596964
0.000708574
0.00067839
0.000419123
-4.31207e-05
-0.000554381
-0.00102833
-0.00145949
-0.00190785
-0.00247414
-0.00328035
-0.00446354
-0.00617161
-0.00854381
-0.0116757
-0.0155815
-0.0201704
-0.0252458
-0.0305268
-0.0356826
-0.0403724
-0.0442815
-0.0471526
-0.0488074
-0.0491612
-0.0482438
-0.0462008
-0.0432971
-0.0399178
-0.0365351
-0.0336645
-0.0317981
-0.0313244
-0.0324455
-0.0351187
-0.0390437
-0.0437155
-0.0485341
-0.0529385
-0.0565285
-0.0591165
-0.060736
-0.0615431
-0.0617292
-0.0615443
-0.0612077
-0.0608626
-0.0605827
-0.0603811
-0.0602048
-0.060028
0.00146391
0.00132979
0.000950328
0.000398653
-0.000167564
-0.00067416
-0.00114584
-0.00169549
-0.0024924
-0.00374278
-0.00567232
-0.00849509
-0.0123667
-0.0173381
-0.0233293
-0.0301319
-0.0374366
-0.0448718
-0.0520441
-0.0585734
-0.0641228
-0.0684216
-0.071282
-0.0726052
-0.0723895
-0.070719
-0.0677916
-0.0639279
-0.0595359
-0.0550911
-0.0510962
-0.0480227
-0.0462368
-0.0459249
-0.0470411
-0.0493023
-0.052246
-0.0553423
-0.0581239
-0.060281
-0.0616928
-0.0624079
-0.0625902
-0.0624025
-0.0620163
-0.0615907
-0.061225
-0.0609566
-0.0607513
-0.0605799
0.00253357
0.00227067
0.00176181
0.00111024
0.000453235
-0.000166145
-0.000836085
-0.0017523
-0.00318431
-0.00544227
-0.0088281
-0.0135709
-0.0197675
-0.0273509
-0.036096
-0.0456545
-0.055602
-0.0654852
-0.0748622
-0.0833331
-0.0905632
-0.0962965
-0.100361
-0.102665
-0.103205
-0.10203
-0.0992679
-0.0951517
-0.0899841
-0.0841384
-0.0780463
-0.0721741
-0.0669798
-0.0628527
-0.0600452
-0.0586148
-0.0584029
-0.0590709
-0.0601915
-0.0613626
-0.0622961
-0.0628523
-0.0630302
-0.0629174
-0.062618
-0.0622432
-0.0618927
-0.061624
-0.0614284
-0.0612832
0.0039239
0.00352488
0.0028858
0.00211204
0.00129668
0.000411875
-0.000727715
-0.00243132
-0.00508404
-0.00907989
-0.0147343
-0.0222031
-0.0314393
-0.0421981
-0.05408
-0.0665918
-0.0792063
-0.0914138
-0.102759
-0.112866
-0.121447
-0.128303
-0.133309
-0.136404
-0.137606
-0.136975
-0.134583
-0.130576
-0.125136
-0.118495
-0.11094
-0.102823
-0.0945537
-0.0865905
-0.0793938
-0.073364
-0.0687651
-0.0656613
-0.0638956
-0.0631353
-0.0629764
-0.0630579
-0.063135
-0.0631009
-0.0629518
-0.0627291
-0.0624954
-0.0623046
-0.0621645
-0.0620639
0.00558008
0.00505186
0.00427757
0.00333912
0.0022408
0.000844317
-0.00116259
-0.0042159
-0.00879292
-0.0153017
-0.0239718
-0.0347881
-0.0474891
-0.0616167
-0.0765933
-0.0918022
-0.106655
-0.120641
-0.133352
-0.144488
-0.153855
-0.161341
-0.166889
-0.170479
-0.172157
-0.172019
-0.17011
-0.166508
-0.161299
-0.154583
-0.146487
-0.137182
-0.126914
-0.11603
-0.104994
-0.0943782
-0.0848007
-0.0768212
-0.0708014
-0.0667919
-0.0645149
-0.0634726
-0.0631312
-0.0630761
-0.0630769
-0.0630575
-0.063013
-0.0629663
-0.0629213
-0.0628763
0.00735159
0.00670837
0.00578772
0.00460259
0.00302409
0.00077327
-0.00260197
-0.00764241
-0.0148474
-0.0245337
-0.0367371
-0.0511913
-0.0673803
-0.0846332
-0.102229
-0.119488
-0.135837
-0.150837
-0.164186
-0.175704
-0.185305
-0.192968
-0.1987
-0.20252
-0.204489
-0.204733
-0.203288
-0.200196
-0.19549
-0.189188
-0.181302
-0.171844
-0.160863
-0.14849
-0.135
-0.120869
-0.106807
-0.0937062
-0.0824879
-0.0738599
-0.0680722
-0.0648244
-0.0634154
-0.0630539
-0.0631291
-0.0633107
-0.063491
-0.063629
-0.0637041
-0.0637188
0.00898035
0.00824112
0.00713859
0.00557379
0.00324947
-0.000267419
-0.00555217
-0.0131868
-0.0235887
-0.0368701
-0.0527849
-0.0707724
-0.0900671
-0.109833
-0.129285
-0.147773
-0.164821
-0.180126
-0.193528
-0.204967
-0.214452
-0.222029
-0.227747
-0.231643
-0.233782
-0.234293
-0.233206
-0.230555
-0.226356
-0.220601
-0.213252
-0.204241
-0.193481
-0.180907
-0.166533
-0.150559
-0.133477
-0.116154
-0.099801
-0.0857542
-0.0750851
-0.0681875
-0.0646179
-0.0633491
-0.0632765
-0.0636197
-0.0640184
-0.0643541
-0.0645592
-0.0646341
0.0101129
0.00928247
0.00793093
0.00580918
0.00243245
-0.00277554
-0.0104625
-0.0211569
-0.0350816
-0.052051
-0.0714897
-0.0925491
-0.114271
-0.135746
-0.156229
-0.175191
-0.192317
-0.207463
-0.220601
-0.231765
-0.241023
-0.24845
-0.254109
-0.258041
-0.260298
-0.260991
-0.260144
-0.257791
-0.25395
-0.248622
-0.241772
-0.233322
-0.223146
-0.211078
-0.196949
-0.180668
-0.162359
-0.142534
-0.122246
-0.103072
-0.0868069
-0.0748669
-0.0676694
-0.0644512
-0.0637347
-0.0641009
-0.0646964
-0.0652243
-0.0655614
-0.0656995
0.0103203
0.00938456
0.0076929
0.00481538
8.42098e-05
-0.00718322
-0.0176295
-0.031625
-0.0491029
-0.0695265
-0.0919946
-0.115429
-0.138778
-0.161168
-0.181991
-0.200898
-0.21775
-0.232544
-0.245345
-0.256242
-0.265319
-0.272652
-0.278297
-0.282284
-0.284647
-0.285477
-0.284784
-0.282603
-0.278958
-0.273864
-0.267311
-0.259251
-0.249586
-0.238151
-0.22472
-0.209037
-0.190912
-0.170396
-0.148041
-0.12513
-0.10368
-0.0859804
-0.0737107
-0.0670959
-0.0648189
-0.0648635
-0.065608
-0.0663201
-0.0667975
-0.0670108
0.00915811
0.00809165
0.00595814
0.00213769
-0.00419406
-0.0137688
-0.0271358
-0.0444157
-0.0651927
-0.0885746
-0.113387
-0.138421
-0.162639
-0.185308
-0.206009
-0.224585
-0.241049
-0.255493
-0.26803
-0.278759
-0.287756
-0.295081
-0.300772
-0.304845
-0.307315
-0.308259
-0.307676
-0.305594
-0.302041
-0.297037
-0.290594
-0.282699
-0.273304
-0.262303
-0.249511
-0.234654
-0.2174
-0.19746
-0.174828
-0.150132
-0.124978
-0.10192
-0.0837548
-0.0722338
-0.0670477
-0.0660731
-0.0668041
-0.0677085
-0.0683506
-0.0686644
0.00625001
0.00502042
0.00235287
-0.00255215
-0.0106324
-0.022602
-0.0388362
-0.0591435
-0.082744
-0.108431
-0.134846
-0.160756
-0.185243
-0.207765
-0.228108
-0.246278
-0.262387
-0.276574
-0.288958
-0.299624
-0.308626
-0.316002
-0.321773
-0.325945
-0.328521
-0.329565
-0.329073
-0.327065
-0.323564
-0.318589
-0.31216
-0.304284
-0.294955
-0.28413
-0.271706
-0.257488
-0.24116
-0.222313
-0.200561
-0.175861
-0.148999
-0.122049
-0.0982364
-0.080791
-0.0711614
-0.0680407
-0.0683573
-0.0694508
-0.0702935
-0.0707502
0.00135716
-6.61811e-05
-0.00333139
-0.00939246
-0.0192485
-0.0335327
-0.0523867
-0.0752817
-0.101099
-0.128393
-0.155722
-0.181928
-0.206272
-0.228421
-0.248336
-0.266135
-0.28198
-0.296013
-0.308335
-0.319004
-0.328051
-0.335497
-0.341352
-0.345615
-0.348282
-0.349413
-0.349004
-0.347066
-0.343616
-0.33867
-0.332241
-0.324344
-0.314989
-0.304176
-0.291874
-0.27799
-0.262319
-0.244502
-0.224039
-0.200446
-0.173686
-0.144856
-0.116725
-0.0933045
-0.0779874
-0.0712905
-0.0704324
-0.0716124
-0.0727032
-0.0733588
-0.0055731
-0.00721127
-0.0110972
-0.0183062
-0.0298461
-0.0462192
-0.0673023
-0.09224
-0.119633
-0.147882
-0.17556
-0.201649
-0.225612
-0.247305
-0.266816
-0.284321
-0.299989
-0.313942
-0.32625
-0.336946
-0.346041
-0.353544
-0.359465
-0.363798
-0.366539
-0.36774
-0.367406
-0.365539
-0.362151
-0.357252
-0.350851
-0.342957
-0.33358
-0.322736
-0.310433
-0.296657
-0.281325
-0.264217
-0.244913
-0.222799
-0.197295
-0.168471
-0.137993
-0.10963
-0.0881589
-0.0764984
-0.0733478
-0.0742956
-0.0756934
-0.0765969
-0.0143928
-0.0162527
-0.0207392
-0.0290146
-0.0420483
-0.0601815
-0.0830239
-0.109432
-0.137798
-0.166459
-0.194068
-0.219785
-0.243263
-0.264501
-0.283665
-0.300949
-0.316502
-0.330411
-0.342717
-0.353432
-0.362557
-0.370096
-0.376057
-0.380438
-0.383232
-0.384489
-0.384219
-0.382419
-0.379099
-0.374265
-0.367922
-0.360072
-0.350721
-0.339879
-0.327567
-0.313807
-0.298603
-0.281878
-0.263381
-0.242597
-0.218764
-0.191232
-0.160395
-0.128905
-0.101835
-0.0843083
-0.0775631
-0.0776612
-0.0793879
-0.0805761
-0.024774
-0.0268468
-0.0318762
-0.0410804
-0.0553533
-0.0748652
-0.0989804
-0.126323
-0.155152
-0.183812
-0.211079
-0.236291
-0.25926
-0.280084
-0.298963
-0.316078
-0.331545
-0.345418
-0.357713
-0.368428
-0.377559
-0.38511
-0.391091
-0.395502
-0.398335
-0.399633
-0.399417
-0.397677
-0.394423
-0.38966
-0.383391
-0.375616
-0.366335
-0.355552
-0.34328
-0.329549
-0.314399
-0.29785
-0.279822
-0.260002
-0.237724
-0.212042
-0.182349
-0.149782
-0.118567
-0.0950969
-0.0835839
-0.0819395
-0.0838922
-0.0854095
-0.0362552
-0.0385171
-0.044005
-0.0539673
-0.0691965
-0.0897
-0.114635
-0.142455
-0.171353
-0.199728
-0.226498
-0.251158
-0.273641
-0.294102
-0.312745
-0.329721
-0.34511
-0.35894
-0.371206
-0.381901
-0.39102
-0.398567
-0.404553
-0.40898
-0.411842
-0.413171
-0.412998
-0.411309
-0.408115
-0.40342
-0.397228
-0.38954
-0.380355
-0.369673
-0.357498
-0.343852
-0.328776
-0.312335
-0.294561
-0.275348
-0.254265
-0.230421
-0.202683
-0.170798
-0.137389
-0.108807
-0.091838
-0.0874235
-0.0892968
-0.0912165
-0.0483005
-0.0507153
-0.0565622
-0.0671014
-0.0830072
-0.104146
-0.129514
-0.157453
-0.186142
-0.214062
-0.240268
-0.264384
-0.286425
-0.306572
-0.325011
-0.341861
-0.357171
-0.370944
-0.383167
-0.393829
-0.402924
-0.410456
-0.416439
-0.420876
-0.423758
-0.425109
-0.424972
-0.423326
-0.420183
-0.415548
-0.409428
-0.401826
-0.392744
-0.382182
-0.370141
-0.356632
-0.341686
-0.32537
-0.307771
-0.288929
-0.268663
-0.246338
-0.220747
-0.190713
-0.157057
-0.124913
-0.102523
-0.0943929
-0.095694
-0.098109
-0.0603601
-0.0628806
-0.0689828
-0.0799245
-0.0962534
-0.117724
-0.143219
-0.17102
-0.199326
-0.226711
-0.252348
-0.275959
-0.297608
-0.317482
-0.33574
-0.352472
-0.367697
-0.381405
-0.393576
-0.404196
-0.413262
-0.420777
-0.426752
-0.431194
-0.434091
-0.435458
-0.43535
-0.433739
-0.430637
-0.426053
-0.419995
-0.412471
-0.403486
-0.393044
-0.381149
-0.367807
-0.35304
-0.3369
-0.319483
-0.300904
-0.281181
-0.259984
-0.236333
-0.208678
-0.176337
-0.142514
-0.115492
-0.103039
-0.103192
-0.106144
-0.0719195
-0.0744949
-0.0807471
-0.0919343
-0.108471
-0.130032
-0.15543
-0.182926
-0.210761
-0.237596
-0.2627
-0.285861
-0.307171
-0.326806
-0.344902
-0.361519
-0.376658
-0.390298
-0.402414
-0.412993
-0.42203
-0.429527
-0.435494
-0.439938
-0.442848
-0.444224
-0.44414
-0.442556
-0.439487
-0.434943
-0.428936
-0.421476
-0.412575
-0.402242
-0.390486
-0.377317
-0.362752
-0.346831
-0.329636
-0.311306
-0.291975
-0.271579
-0.249495
-0.224245
-0.194208
-0.160519
-0.130229
-0.113375
-0.111848
-0.115261
-0.0825601
-0.0850963
-0.091415
-0.102709
-0.119278
-0.140748
-0.165899
-0.192999
-0.220339
-0.246656
-0.271286
-0.294061
-0.315082
-0.334511
-0.352461
-0.36897
-0.384027
-0.397601
-0.409667
-0.42021
-0.429223
-0.436707
-0.442668
-0.447114
-0.450034
-0.451415
-0.451349
-0.449784
-0.446739
-0.442224
-0.436253
-0.428841
-0.420006
-0.409763
-0.398129
-0.38512
-0.370755
-0.355069
-0.338132
-0.320074
-0.301081
-0.281274
-0.26038
-0.237263
-0.209955
-0.177842
-0.145926
-0.125158
-0.121563
-0.125219
-0.0919648
-0.094308
-0.100626
-0.111921
-0.128383
-0.149631
-0.174441
-0.20111
-0.227977
-0.253835
-0.278065
-0.300521
-0.321303
-0.340557
-0.35838
-0.374793
-0.389777
-0.403296
-0.415322
-0.425839
-0.434838
-0.442316
-0.448275
-0.452724
-0.455652
-0.457041
-0.456985
-0.455434
-0.452401
-0.447901
-0.441951
-0.434568
-0.425775
-0.415597
-0.404058
-0.391182
-0.376997
-0.361538
-0.344869
-0.327106
-0.308447
-0.289114
-0.269116
-0.247746
-0.223154
-0.19355
-0.161613
-0.13786
-0.131995
-0.135597
-0.0998852
-0.1019
-0.108111
-0.119328
-0.135581
-0.156511
-0.180928
-0.20717
-0.233614
-0.25909
-0.283
-0.305204
-0.325795
-0.344908
-0.362625
-0.378959
-0.393885
-0.407365
-0.419367
-0.429873
-0.43887
-0.446352
-0.452318
-0.456774
-0.459711
-0.461111
-0.461061
-0.459517
-0.456486
-0.451987
-0.446038
-0.438661
-0.429885
-0.41974
-0.40826
-0.395481
-0.381438
-0.366176
-0.349757
-0.332291
-0.313968
-0.295057
-0.275754
-0.255754
-0.233597
-0.206938
-0.176308
-0.150731
-0.142601
-0.145855
-0.106155
-0.107754
-0.113713
-0.124778
-0.140753
-0.161306
-0.185306
-0.211138
-0.237217
-0.26239
-0.286059
-0.308076
-0.328522
-0.347526
-0.365162
-0.38144
-0.396329
-0.40979
-0.421788
-0.432301
-0.441312
-0.448813
-0.454798
-0.459268
-0.462217
-0.463629
-0.46358
-0.462042
-0.459003
-0.454491
-0.448524
-0.441129
-0.432338
-0.422189
-0.410728
-0.397998
-0.384049
-0.368934
-0.352722
-0.335524
-0.317525
-0.299003
-0.28027
-0.26133
-0.241213
-0.217532
-0.189142
-0.162926
-0.152744
-0.155423
-0.110707
-0.111832
-0.117392
-0.128211
-0.143849
-0.163971
-0.187529
-0.212968
-0.23874
-0.263691
-0.287205
-0.309111
-0.329472
-0.348408
-0.365993
-0.382238
-0.397114
-0.410579
-0.422596
-0.433135
-0.442179
-0.449712
-0.455724
-0.460211
-0.463169
-0.464585
-0.464533
-0.462998
-0.459944
-0.455404
-0.449401
-0.441962
-0.433125
-0.422936
-0.411449
-0.39872
-0.384806
-0.369774
-0.353707
-0.336721
-0.319001
-0.300832
-0.28258
-0.264467
-0.245983
-0.225051
-0.199426
-0.173628
-0.161795
-0.16376
-0.11357
-0.114189
-0.119215
-0.129675
-0.14491
-0.164547
-0.187624
-0.212666
-0.23816
-0.262944
-0.28637
-0.308228
-0.328558
-0.34747
-0.365042
-0.381289
-0.396185
-0.409688
-0.421757
-0.432357
-0.441466
-0.449063
-0.455134
-0.45967
-0.462665
-0.464103
-0.464027
-0.462462
-0.459358
-0.454752
-0.448671
-0.441149
-0.432231
-0.421963
-0.410404
-0.397619
-0.383679
-0.368661
-0.352663
-0.335811
-0.318301
-0.300422
-0.282573
-0.265111
-0.247901
-0.229347
-0.206668
-0.182126
-0.169182
-0.170385
-0.11485
-0.114967
-0.119337
-0.129298
-0.144044
-0.163127
-0.185668
-0.210283
-0.235503
-0.260154
-0.283543
-0.305409
-0.32576
-0.344693
-0.362288
-0.37857
-0.393517
-0.407088
-0.419238
-0.429929
-0.43913
-0.446815
-0.452967
-0.45757
-0.460615
-0.462092
-0.462019
-0.460433
-0.457279
-0.452597
-0.44642
-0.438779
-0.429722
-0.419307
-0.407601
-0.394682
-0.380637
-0.365555
-0.349539
-0.332731
-0.315339
-0.297666
-0.280132
-0.263179
-0.246947
-0.230353
-0.210545
-0.187849
-0.174408
-0.17488
-0.114726
-0.114376
-0.117993
-0.127283
-0.141418
-0.15985
-0.181769
-0.205894
-0.230809
-0.255333
-0.278716
-0.300637
-0.321058
-0.340059
-0.357719
-0.374072
-0.389105
-0.40278
-0.415047
-0.425864
-0.435191
-0.442996
-0.449255
-0.453948
-0.457062
-0.458584
-0.458517
-0.456912
-0.453699
-0.448924
-0.442626
-0.434837
-0.425609
-0.415003
-0.403096
-0.389971
-0.375723
-0.360458
-0.344304
-0.327424
-0.310042
-0.29247
-0.27515
-0.258577
-0.243084
-0.228041
-0.210865
-0.190367
-0.177047
-0.17688
-0.113425
-0.112679
-0.115482
-0.123905
-0.13726
-0.154908
-0.17608
-0.199603
-0.224134
-0.248493
-0.271872
-0.293878
-0.314415
-0.333531
-0.351304
-0.367773
-0.382935
-0.396754
-0.409181
-0.420164
-0.429657
-0.437621
-0.444021
-0.448832
-0.452035
-0.453615
-0.453562
-0.451935
-0.448659
-0.443777
-0.437332
-0.429361
-0.419916
-0.409065
-0.39689
-0.383482
-0.368947
-0.353403
-0.336992
-0.319897
-0.302371
-0.284763
-0.267538
-0.251217
-0.236263
-0.222404
-0.207531
-0.189369
-0.17673
-0.176061
-0.111211
-0.110169
-0.112141
-0.119502
-0.13186
-0.148544
-0.168797
-0.191552
-0.215561
-0.239662
-0.262998
-0.285092
-0.305778
-0.325059
-0.342998
-0.359636
-0.374977
-0.388991
-0.401625
-0.412823
-0.422528
-0.430692
-0.437273
-0.442236
-0.445556
-0.447213
-0.447192
-0.445543
-0.442202
-0.437201
-0.430587
-0.422401
-0.412695
-0.401543
-0.389029
-0.375254
-0.360332
-0.344394
-0.327599
-0.310155
-0.292341
-0.274538
-0.257251
-0.241037
-0.226442
-0.213441
-0.200503
-0.184651
-0.173135
-0.172124
-0.108362
-0.107137
-0.108318
-0.114449
-0.12556
-0.141046
-0.160158
-0.181924
-0.205207
-0.228892
-0.25209
-0.274241
-0.295091
-0.314584
-0.332748
-0.349619
-0.365203
-0.37947
-0.39237
-0.403837
-0.413808
-0.422223
-0.429031
-0.434187
-0.437658
-0.439419
-0.43945
-0.437786
-0.434384
-0.429257
-0.422454
-0.414021
-0.404012
-0.3925
-0.379576
-0.365346
-0.349931
-0.333477
-0.31616
-0.298213
-0.27995
-0.261792
-0.244288
-0.228032
-0.213618
-0.201176
-0.18979
-0.176092
-0.165975
-0.164788
-0.105147
-0.103853
-0.10433
-0.109127
-0.11874
-0.132747
-0.15044
-0.170936
-0.193222
-0.216262
-0.239162
-0.261289
-0.282292
-0.302033
-0.320489
-0.337669
-0.353573
-0.36817
-0.381406
-0.393211
-0.403512
-0.412238
-0.419327
-0.424724
-0.428388
-0.430286
-0.430395
-0.428732
-0.425275
-0.420018
-0.413011
-0.404303
-0.393948
-0.382021
-0.368614
-0.353837
-0.337821
-0.320722
-0.302738
-0.28413
-0.265248
-0.246562
-0.228672
-0.212221
-0.197846
-0.185679
-0.175451
-0.16365
-0.155003
-0.153782
-0.1018
-0.100533
-0.10044
-0.103893
-0.111794
-0.124012
-0.139955
-0.15884
-0.17979
-0.201881
-0.224248
-0.246208
-0.267312
-0.287321
-0.306134
-0.323714
-0.340036
-0.35506
-0.368724
-0.380952
-0.391661
-0.400769
-0.408203
-0.4139
-0.417806
-0.419882
-0.4201
-0.418463
-0.414962
-0.409577
-0.402356
-0.393348
-0.382608
-0.37021
-0.356247
-0.340833
-0.324104
-0.306231
-0.287432
-0.268001
-0.248331
-0.228942
-0.210494
-0.193682
-0.179197
-0.1671
-0.157615
-0.147369
-0.140032
-0.138847
-0.0985078
-0.097337
-0.0968358
-0.0990365
-0.105098
-0.115229
-0.129047
-0.145921
-0.16513
-0.185892
-0.207413
-0.228991
-0.25009
-0.270355
-0.289583
-0.307664
-0.324523
-0.340096
-0.354304
-0.367062
-0.378277
-0.387855
-0.395714
-0.401778
-0.405986
-0.408291
-0.408657
-0.407074
-0.403548
-0.398043
-0.390601
-0.381274
-0.370115
-0.357194
-0.342605
-0.326464
-0.308914
-0.290139
-0.270383
-0.249973
-0.22935
-0.209094
-0.189922
-0.172585
-0.15781
-0.145644
-0.13648
-0.127368
-0.120959
-0.119753
-0.0953999
-0.0943652
-0.0936253
-0.09476
-0.0989746
-0.106775
-0.118076
-0.132487
-0.149488
-0.168473
-0.188761
-0.209668
-0.23059
-0.251056
-0.270738
-0.289418
-0.30695
-0.323218
-0.338117
-0.35154
-0.363382
-0.37354
-0.381918
-0.388433
-0.393015
-0.395607
-0.39617
-0.394681
-0.391155
-0.385543
-0.377881
-0.368221
-0.356612
-0.343123
-0.327844
-0.310894
-0.292423
-0.272632
-0.251788
-0.230258
-0.208535
-0.18726
-0.167213
-0.149191
-0.13395
-0.121543
-0.112311
-0.103833
-0.0977739
-0.0962644
-0.092554
-0.0916737
-0.0908484
-0.0911628
-0.0936492
-0.0989774
-0.107397
-0.11886
-0.133134
-0.149839
-0.168444
-0.188323
-0.208831
-0.229387
-0.249523
-0.26889
-0.287235
-0.304364
-0.320124
-0.334377
-0.346996
-0.357866
-0.36688
-0.373946
-0.378986
-0.381938
-0.382756
-0.381409
-0.377912
-0.372215
-0.364343
-0.354343
-0.342264
-0.328171
-0.312151
-0.294326
-0.274854
-0.253951
-0.231915
-0.209152
-0.186211
-0.163793
-0.142736
-0.123879
-0.107991
-0.0950878
-0.0854635
-0.0769905
-0.0705276
-0.068039
-0.0900025
-0.0892849
-0.0884969
-0.0882493
-0.089223
-0.0920603
-0.0973068
-0.105348
-0.116352
-0.130238
-0.146672
-0.165118
-0.184917
-0.205394
-0.225938
-0.246047
-0.26533
-0.28349
-0.300297
-0.315565
-0.329137
-0.340876
-0.350664
-0.3584
-0.364001
-0.367397
-0.36854
-0.367395
-0.363966
-0.358216
-0.350153
-0.339819
-0.327263
-0.312546
-0.295757
-0.277016
-0.256493
-0.234422
-0.211129
-0.187062
-0.162824
-0.139173
-0.116993
-0.0971505
-0.0804077
-0.0666989
-0.0563661
-0.0471092
-0.039422
-0.0346769
-0.0877367
-0.0871948
-0.0865343
-0.0859484
-0.0856574
-0.086091
-0.087986
-0.0922013
-0.0994167
-0.109949
-0.123719
-0.140311
-0.159077
-0.179261
-0.200115
-0.220972
-0.241285
-0.260625
-0.278661
-0.295137
-0.309849
-0.322631
-0.33335
-0.341893
-0.34817
-0.35211
-0.353661
-0.352785
-0.349478
-0.343719
-0.335498
-0.324854
-0.311836
-0.296506
-0.27895
-0.259295
-0.23772
-0.214476
-0.18992
-0.164538
-0.138976
-0.114034
-0.0906273
-0.0696266
-0.0517672
-0.0369048
-0.0254882
-0.014518
-0.00509517
0.00388138
-0.0857
-0.0853638
-0.0849006
-0.0841279
-0.0827729
-0.0809393
-0.0794325
-0.0795546
-0.0825667
-0.0892808
-0.0999401
-0.114286
-0.131699
-0.151357
-0.172381
-0.193943
-0.215327
-0.235953
-0.255368
-0.273225
-0.289256
-0.303256
-0.315066
-0.32456
-0.331641
-0.336235
-0.338288
-0.337762
-0.334646
-0.328937
-0.320612
-0.309708
-0.296276
-0.28038
-0.26211
-0.241597
-0.219032
-0.194686
-0.168936
-0.142297
-0.11544
-0.0891792
-0.0644259
-0.0420236
-0.0226614
-0.00615322
0.00693572
0.0206841
0.0316109
0.0474471
-0.0837713
-0.0836958
-0.0834881
-0.0825841
-0.0802513
-0.0762653
-0.0714192
-0.0673758
-0.0659702
-0.0685657
-0.0757903
-0.0875838
-0.103376
-0.122291
-0.143331
-0.165509
-0.187945
-0.2099
-0.230786
-0.250148
-0.267642
-0.283009
-0.296056
-0.306638
-0.314648
-0.320008
-0.322664
-0.32258
-0.319741
-0.314157
-0.305808
-0.294726
-0.280968
-0.264604
-0.24573
-0.224486
-0.201076
-0.175781
-0.148993
-0.121232
-0.0931627
-0.0655708
-0.0393096
-0.015144
0.00632614
0.025344
0.0413138
0.0592962
0.0716386
0.0981051
-0.0817565
-0.0820082
-0.0820889
-0.0809984
-0.077632
-0.0715455
-0.0635137
-0.0554629
-0.0497149
-0.0481616
-0.0518435
-0.0609352
-0.0749419
-0.0929517
-0.11386
-0.136541
-0.159956
-0.183212
-0.205584
-0.226504
-0.245539
-0.262368
-0.276756
-0.288532
-0.297576
-0.303805
-0.307162
-0.307616
-0.305152
-0.299786
-0.291517
-0.280376
-0.266426
-0.249746
-0.230445
-0.208673
-0.184642
-0.158638
-0.131046
-0.102363
-0.0731977
-0.0442518
-0.0162568
0.0101704
0.0345955
0.0574486
0.0783383
0.10311
0.120115
0.163169
-0.0794421
-0.0800492
-0.0804154
-0.0789742
-0.0743747
-0.0661657
-0.0551898
-0.0435348
-0.0338593
-0.028479
-0.0288123
-0.0352808
-0.0474921
-0.0645242
-0.0851929
-0.108253
-0.132528
-0.156988
-0.180778
-0.203218
-0.223786
-0.242093
-0.257858
-0.27088
-0.28102
-0.288187
-0.292326
-0.293407
-0.29142
-0.28638
-0.278314
-0.267258
-0.253289
-0.236499
-0.217008
-0.194974
-0.17061
-0.144193
-0.116075
-0.0866882
-0.0565355
-0.0261633
0.00389437
0.0332512
0.0617264
0.0900696
0.118287
0.153469
0.183253
0.24795
-0.0769324
-0.0777805
-0.078277
-0.0762303
-0.0701804
-0.0597541
-0.0460903
-0.0314399
-0.0185702
-0.010041
-0.00755634
-0.0117523
-0.0223501
-0.0384495
-0.0588245
-0.0821463
-0.107132
-0.132636
-0.157693
-0.181522
-0.20352
-0.223231
-0.240325
-0.254569
-0.265806
-0.273934
-0.278896
-0.280667
-0.279246
-0.274651
-0.26692
-0.256102
-0.242295
-0.225614
-0.206186
-0.184169
-0.159765
-0.13322
-0.104826
-0.0749129
-0.0438226
-0.0118712
0.0207135
0.0539252
0.0880087
0.124155
0.162679
0.212337
0.259845
0.338423
-0.0755128
-0.0762097
-0.0763359
-0.07311
-0.0652296
-0.0525793
-0.0365046
-0.019515
-0.00438657
0.00638042
0.0108895
0.00836043
-0.00100507
-0.0163454
-0.0364368
-0.0599127
-0.0854248
-0.111748
-0.137832
-0.162819
-0.186034
-0.206966
-0.22524
-0.240592
-0.252844
-0.261885
-0.267656
-0.270132
-0.269323
-0.265261
-0.258
-0.247584
-0.234098
-0.217687
-0.198502
-0.176698
-0.152451
-0.12596
-0.0974379
-0.0670837
-0.0350375
-0.00130622
0.0343421
0.0725746
0.114559
0.162625
0.217842
0.28897
0.349344
0.424324
-0.0796875
-0.0789865
-0.0773754
-0.0717642
-0.0612171
-0.0459809
-0.0276602
-0.00885646
0.00765142
0.0196528
0.025384
0.0238455
0.0152255
0.000363073
-0.0195423
-0.0431223
-0.0690009
-0.0959086
-0.122744
-0.148595
-0.172738
-0.194615
-0.213819
-0.23006
-0.243142
-0.252945
-0.259406
-0.262503
-0.26225
-0.258685
-0.251872
-0.2419
-0.228847
-0.212793
-0.193896
-0.172332
-0.148264
-0.121846
-0.0932076
-0.0624115
-0.0293724
0.00627488
0.0453798
0.0896573
0.142026
0.207711
0.291506
0.403433
0.495709
0.6033
-0.103119
-0.0952963
-0.086848
-0.0760583
-0.0616955
-0.043367
-0.0227175
-0.00232502
0.0153637
0.0281387
0.0343119
0.0331973
0.0249868
0.0104711
-0.00919604
-0.0326806
-0.058622
-0.0857467
-0.112934
-0.139243
-0.163919
-0.186374
-0.206173
-0.223004
-0.236656
-0.246998
-0.253961
-0.25752
-0.25769
-0.254512
-0.248051
-0.238393
-0.225636
-0.209889
-0.191277
-0.169938
-0.146021
-0.11965
-0.0908882
-0.059672
-0.025699
0.011775
0.0542655
0.104694
0.16819
0.254247
0.375544
0.555603
0.767585
1.10776
-0.189951
-0.112194
-0.0806041
-0.0713744
-0.0580975
-0.0387272
-0.0170357
0.00396351
0.0217621
0.0341862
0.0398318
0.0382166
0.0296136
0.0148422
-0.00495072
-0.0284677
-0.0543941
-0.0814951
-0.108677
-0.135014
-0.159754
-0.18231
-0.20224
-0.219226
-0.233049
-0.243573
-0.250724
-0.254473
-0.254833
-0.251844
-0.245571
-0.236098
-0.223523
-0.207957
-0.189519
-0.16834
-0.144553
-0.118255
-0.0894501
-0.0579787
-0.0233738
0.015389
0.0603026
0.11511
0.186372
0.286433
0.435185
0.680262
1.07928
1.82846
)
;

boundaryField
{
    movingWall
    {
        type            zeroGradient;
    }
    fixedWalls
    {
        type            zeroGradient;
    }
    frontAndBack
    {
        type            empty;
    }
}


// ************************************************************************* //
