/*--------------------------------*- C++ -*----------------------------------*\
  =========                 |
  \\      /  F ield         | OpenFOAM: The Open Source CFD Toolbox
   \\    /   O peration     | Website:  https://openfoam.org
    \\  /    A nd           | Version:  7
     \\/     M anipulation  |
\*---------------------------------------------------------------------------*/
FoamFile
{
    version     2.0;
    format      ascii;
    class       surfaceScalarField;
    location    "900";
    object      phi;
}
// * * * * * * * * * * * * * * * * * * * * * * * * * * * * * * * * * * * * * //

dimensions      [0 3 -1 0 0 0 0];

internalField   nonuniform List<scalar> 
4900
(
1.69613e-06
-1.70824e-06
6.22324e-06
-4.5272e-06
1.17171e-05
-5.49392e-06
1.65036e-05
-4.78647e-06
1.97509e-05
-3.24738e-06
2.13898e-05
-1.63887e-06
2.17679e-05
-3.78163e-07
2.12618e-05
5.06006e-07
2.00147e-05
1.24709e-06
1.78623e-05
2.15234e-06
1.44113e-05
3.45091e-06
9.17481e-06
5.23648e-06
1.66147e-06
7.51329e-06
-8.58082e-06
1.02422e-05
-2.19016e-05
1.33207e-05
-3.84637e-05
1.65621e-05
-5.81714e-05
1.97076e-05
-8.0589e-05
2.24176e-05
-0.000104878
2.4289e-05
-0.000129781
2.49032e-05
-0.000153671
2.38897e-05
-0.000174661
2.09894e-05
-0.000190768
1.61071e-05
-0.000200117
9.34952e-06
-0.000201188
1.07085e-06
-0.000193039
-8.14928e-06
-0.000175425
-1.76142e-05
-0.000148867
-2.6558e-05
-0.000114658
-3.42081e-05
-7.48256e-05
-3.98329e-05
-3.20195e-05
-4.28061e-05
1.0644e-05
-4.26636e-05
4.99077e-05
-3.92637e-05
8.29195e-05
-3.30118e-05
0.000107503
-2.45834e-05
0.000122393
-1.48897e-05
0.000127473
-5.08089e-06
0.000123826
3.64695e-06
0.000113449
1.03776e-05
9.87324e-05
1.47164e-05
8.20205e-05
1.67119e-05
6.52511e-05
1.67694e-05
4.97702e-05
1.54808e-05
3.63124e-05
1.34578e-05
2.51055e-05
1.12069e-05
1.60417e-05
9.06371e-06
8.89465e-06
7.14707e-06
3.59501e-06
5.29963e-06
5.05433e-07
3.08956e-06
5.0543e-07
4.47321e-06
-6.18156e-06
1.38479e-05
-1.3902e-05
2.43108e-05
-1.59569e-05
3.2899e-05
-1.33747e-05
3.80008e-05
-8.34926e-06
3.92258e-05
-2.86401e-06
3.68559e-05
1.99161e-06
3.11978e-05
6.16406e-06
2.21429e-05
1.03018e-05
9.0631e-06
1.5232e-05
-9.03916e-06
2.1553e-05
-3.32648e-05
2.9462e-05
-6.45138e-05
3.87621e-05
-0.000103225
4.89538e-05
-0.00014917
5.9265e-05
-0.000201286
6.86784e-05
-0.000257627
7.60487e-05
-0.000315482
8.02725e-05
-0.000371653
8.04598e-05
-0.000422804
7.6054e-05
-0.000465797
6.68823e-05
-0.000497952
5.3145e-05
-0.000517217
3.53719e-05
-0.00052225
1.4382e-05
-0.000512505
-8.67422e-06
-0.000488075
-3.25794e-05
-0.000449597
-5.60921e-05
-0.000398275
-7.78799e-05
-0.000335936
-9.65467e-05
-0.000265054
-0.000110716
-0.000188719
-0.000119141
-0.000110508
-0.000120874
-3.43017e-05
-0.00011547
3.58279e-05
-0.000103141
9.61874e-05
-8.49429e-05
0.000143961
-6.2663e-05
0.000177225
-3.8345e-05
0.000195189
-1.43176e-05
0.000198447
7.12002e-06
0.000189094
2.4069e-05
0.00017028
3.55266e-05
0.000145594
4.14553e-05
0.000118446
4.26283e-05
9.16033e-05
4.03006e-05
6.69326e-05
3.58776e-05
4.54218e-05
3.05745e-05
2.74615e-05
2.51074e-05
1.33364e-05
1.94247e-05
3.75593e-06
1.267e-05
4.26135e-06
5.987e-06
-1.21686e-05
1.73365e-05
-2.52517e-05
2.88002e-05
-2.74207e-05
3.68194e-05
-2.1394e-05
3.95322e-05
-1.10622e-05
3.635e-05
3.18139e-07
2.72094e-05
1.11321e-05
1.19029e-05
2.14704e-05
-1.0335e-05
3.25395e-05
-4.07815e-05
4.56784e-05
-8.07965e-05
6.15679e-05
-0.000131303
7.99684e-05
-0.000192365
9.98245e-05
-0.000262879
0.000119467
-0.000340496
0.000136882
-0.000421859
0.000150041
-0.00050305
0.00015724
-0.000580117
0.000157339
-0.000649514
0.000149856
-0.000708378
0.000134918
-0.000754625
0.000113129
-0.0007869
8.54207e-05
-0.000804444
5.2915e-05
-0.000806901
1.68394e-05
-0.000794136
-2.14393e-05
-0.000766167
-6.05481e-05
-0.000723309
-9.89502e-05
-0.000666291
-0.000134898
-0.000596348
-0.00016649
-0.000515327
-0.000191736
-0.000425754
-0.000208714
-0.000330823
-0.000215805
-0.000234315
-0.000211978
-0.000140368
-0.000197089
-5.32135e-05
-0.000172097
2.31847e-05
-0.000139061
8.58546e-05
-0.000101015
0.000133003
-6.14664e-05
0.000163664
-2.35406e-05
0.000177979
9.75405e-06
0.000177485
3.60204e-05
0.000164985
5.39558e-05
0.000144025
6.35877e-05
0.000118289
6.6037e-05
9.10358e-05
6.31304e-05
6.47413e-05
5.6869e-05
4.10646e-05
4.8784e-05
2.12078e-05
3.92815e-05
6.60728e-06
2.72704e-05
1.08686e-05
6.50837e-06
-1.86771e-05
1.75955e-05
-3.6339e-05
2.69484e-05
-3.67736e-05
3.07522e-05
-2.51979e-05
2.72009e-05
-7.51104e-06
1.56011e-05
1.19178e-05
-4.58302e-06
3.13161e-05
-3.43661e-05
5.12534e-05
-7.52713e-05
7.34447e-05
-0.000128776
9.91825e-05
-0.000195608
0.0001284
-0.000275188
0.000159548
-0.000365387
0.000190023
-0.000462716
0.000216796
-0.000562861
0.000237027
-0.000661373
0.000248553
-0.000754275
0.000250142
-0.000838431
0.000241495
-0.000911631
0.000223056
-0.00097247
0.000195757
-0.00102012
0.000160782
-0.0010541
0.0001194
-0.00107406
7.287e-05
-0.00107966
2.24432e-05
-0.00107053
-3.05707e-05
-0.00104636
-8.47131e-05
-0.00100701
-0.000138308
-0.000952515
-0.00018939
-0.00088331
-0.000235696
-0.000800331
-0.000274715
-0.000705204
-0.000303841
-0.000600407
-0.000320602
-0.000489364
-0.000323022
-0.000376353
-0.000310099
-0.000266206
-0.000282244
-0.000163772
-0.000241496
-7.337e-05
-0.000191417
1.7239e-06
-0.00013656
5.99355e-05
-8.17523e-05
0.000100962
-3.12722e-05
0.000125058
1.19246e-05
0.000133513
4.55007e-05
0.000128832
6.82681e-05
0.000114312
8.05573e-05
9.35345e-05
8.39077e-05
6.98622e-05
8.05412e-05
4.61119e-05
7.25343e-05
2.46344e-05
6.0759e-05
7.92776e-06
4.3977e-05
1.87964e-05
6.20478e-06
-2.48819e-05
1.4893e-05
-4.50273e-05
1.92003e-05
-4.10811e-05
1.54662e-05
-2.14639e-05
2.14378e-06
5.8113e-06
-2.16515e-05
3.5713e-05
-5.70968e-05
6.67614e-05
-0.000105919
0.000100075
-0.000169741
0.000137267
-0.000249125
0.000178567
-0.000342885
0.00022216
-0.000448002
0.000264664
-0.000560092
0.000302113
-0.000674212
0.000330916
-0.000785685
0.0003485
-0.000890692
0.00035356
-0.000986505
0.000345956
-0.00107141
0.0003264
-0.00114445
0.000296095
-0.00120514
0.000256446
-0.00125324
0.000208883
-0.0012886
0.00015476
-0.00131107
9.53409e-05
-0.00132049
3.18661e-05
-0.00131661
-3.44523e-05
-0.00129905
-0.00010227
-0.00126732
-0.000170041
-0.00122085
-0.000235858
-0.00115914
-0.000297412
-0.00108187
-0.000351977
-0.000989285
-0.00039643
-0.000882481
-0.000427407
-0.000763769
-0.000441733
-0.000636842
-0.000437026
-0.000506752
-0.000412334
-0.00037953
-0.000368718
-0.000261385
-0.000309562
-0.000157616
-0.000240329
-7.17473e-05
-0.000167621
-5.22129e-06
-9.77983e-05
4.25028e-05
-3.57995e-05
7.26706e-05
1.53328e-05
8.68853e-05
5.40533e-05
8.76743e-05
7.97683e-05
7.8246e-05
9.3336e-05
6.21123e-05
9.66749e-05
4.27338e-05
9.19127e-05
2.34051e-05
8.00877e-05
7.60221e-06
5.97799e-05
2.63986e-05
4.89723e-06
-2.97792e-05
8.87625e-06
-4.90064e-05
5.28133e-06
-3.74862e-05
-8.93711e-06
-7.24556e-06
-3.51237e-05
3.19978e-05
-7.44415e-05
7.50307e-05
-0.000128609
0.000120929
-0.000199375
0.000170841
-0.000287295
0.000225187
-0.000390844
0.000282115
-0.000506374
0.00033769
-0.000628821
0.000387112
-0.000752736
0.000426029
-0.000873212
0.000451392
-0.000986447
0.000461735
-0.00108988
0.000456995
-0.00118204
0.000438108
-0.0012622
0.000406565
-0.00133018
0.000364076
-0.00138611
0.000312376
-0.00143031
0.000253086
-0.0014632
0.000187642
-0.00148518
0.000117325
-0.00149661
4.32902e-05
-0.00149756
-3.34961e-05
-0.00148779
-0.000112045
-0.00146667
-0.000191159
-0.00143319
-0.000269332
-0.00138596
-0.000344642
-0.00132338
-0.000414561
-0.001244
-0.000475806
-0.00114697
-0.000524444
-0.00103247
-0.000556235
-0.000902345
-0.000567146
-0.000760574
-0.000554105
-0.000613295
-0.000515998
-0.000468288
-0.000454569
-0.000333802
-0.000374815
-0.000216906
-0.000284517
-0.00012191
-0.000192794
-4.97734e-05
-0.000107936
1.13961e-06
-3.55802e-05
3.34307e-05
2.17622e-05
4.96514e-05
6.35475e-05
5.27605e-05
9.02269e-05
4.6172e-05
0.000103263
3.35884e-05
0.000104496
1.88707e-05
9.48054e-05
6.11312e-06
7.25374e-05
3.25117e-05
2.27268e-06
-3.20519e-05
-9.20281e-07
-4.58135e-05
-1.5016e-05
-2.33906e-05
-4.22063e-05
1.99447e-05
-8.36745e-05
7.34659e-05
-0.000140855
0.000132211
-0.000215447
0.000195521
-0.000308128
0.000263522
-0.00041736
0.000334419
-0.000539196
0.000403951
-0.000668088
0.000466582
-0.000798101
0.000517125
-0.000923967
0.000551894
-0.00104167
0.00056909
-0.00114854
0.000568613
-0.00124313
0.000551577
-0.00132483
0.000519816
-0.00139374
0.000475475
-0.00145043
0.00042076
-0.0014958
0.000357751
-0.00153098
0.00028826
-0.00155711
0.000213778
-0.00157529
0.000135501
-0.00158632
5.43229e-05
-0.00159066
-2.9155e-05
-0.00158833
-0.00011438
-0.00157882
-0.000200664
-0.00156096
-0.000287191
-0.00153288
-0.000372727
-0.00149214
-0.000455303
-0.00143591
-0.000532036
-0.00136126
-0.000599094
-0.00126577
-0.000651724
-0.0011484
-0.000684512
-0.00101038
-0.000692129
-0.00085587
-0.000670508
-0.000692264
-0.000618175
-0.000529608
-0.00053747
-0.000378927
-0.000435198
-0.000249703
-0.000322018
-0.000147412
-0.000210228
-7.25164e-05
-0.000110476
-2.17154e-05
-2.90389e-05
9.3133e-06
3.25187e-05
2.44282e-05
7.51119e-05
2.7413e-05
0.000100279
2.22249e-05
0.000109684
1.30438e-05
0.000103986
4.21212e-06
8.13691e-05
3.67238e-05
-1.91983e-06
-3.01321e-05
-1.46611e-05
-3.30723e-05
-4.13372e-05
3.28536e-06
-8.32386e-05
6.1846e-05
-0.000141377
0.000131605
-0.000217151
0.000207985
-0.000311342
0.000289712
-0.000422665
0.000374845
-0.000547227
0.000458981
-0.000679222
0.000535946
-0.000812262
0.000599622
-0.000940585
0.000645448
-0.00105975
0.000671056
-0.00116679
0.000676131
-0.00126008
0.000661908
-0.0013391
0.000630592
-0.00140416
0.000584879
-0.00145628
0.000527597
-0.00149696
0.000461438
-0.00152796
0.000388748
-0.00155109
0.000311394
-0.00156808
0.000230768
-0.00158038
0.0001478
-0.00158906
6.30007e-05
-0.00159484
-2.33714e-05
-0.00159803
-0.000111186
-0.00159837
-0.000200325
-0.00159491
-0.000290657
-0.00158597
-0.000381663
-0.00156906
-0.000472213
-0.00154072
-0.000560376
-0.00149669
-0.000643124
-0.00143241
-0.000716008
-0.00134376
-0.00077316
-0.00122815
-0.000807742
-0.0010858
-0.00081285
-0.000921029
-0.00078295
-0.000742699
-0.000715801
-0.000563558
-0.000614338
-0.000397971
-0.000487605
-0.000258332
-0.000349866
-0.000151418
-0.00021739
-7.68742e-05
-0.000103583
-2.92375e-05
-1.5118e-05
-2.08012e-06
4.79545e-05
9.96895e-06
8.82294e-05
1.17271e-05
0.000107926
7.78978e-06
0.000107924
2.60045e-06
8.65584e-05
3.93243e-05
-7.74775e-06
-2.23844e-05
-3.1907e-05
-8.91314e-06
-7.25114e-05
4.38897e-05
-0.000129818
0.000119153
-0.00020465
0.000206436
-0.000297734
0.000301069
-0.000408178
0.000400155
-0.000532471
0.000499138
-0.000664838
0.000591348
-0.000798547
0.000669655
-0.000927286
0.000728361
-0.00104604
0.000764202
-0.00115139
0.000776406
-0.00124145
0.000766192
-0.00131567
0.000736126
-0.0013746
0.000689523
-0.00141968
0.000629955
-0.00145293
0.000560851
-0.00147669
0.000485194
-0.00149327
0.000405328
-0.0015048
0.000322926
-0.00151309
0.000239052
-0.00151952
0.000154237
-0.00152516
6.86393e-05
-0.00153076
-1.77725e-05
-0.00153673
-0.000105212
-0.0015431
-0.000193958
-0.00154948
-0.00028428
-0.00155491
-0.000376234
-0.00155754
-0.000469586
-0.00155436
-0.000563554
-0.00154113
-0.000656349
-0.00151242
-0.000744718
-0.00146195
-0.000823629
-0.00138358
-0.000886116
-0.00127286
-0.000923574
-0.00112889
-0.000926914
-0.000956039
-0.000888654
-0.000764792
-0.000805585
-0.000571036
-0.000681361
-0.000392999
-0.000527904
-0.000246214
-0.000364175
-0.000138422
-0.000211375
-6.77214e-05
-8.58185e-05
-2.59078e-05
6.14082e-06
-4.3188e-06
6.66404e-05
3.86613e-06
9.97411e-05
4.28036e-06
0.000107509
1.71425e-06
8.91244e-05
4.10385e-05
-1.49385e-05
-7.44595e-06
-5.16756e-05
2.78239e-05
-0.000106505
9.87185e-05
-0.00017875
0.000191398
-0.000268762
0.000296448
-0.000375997
0.000408305
-0.000497587
0.000521745
-0.000628134
0.000629684
-0.000760781
0.000723995
-0.000888711
0.000797586
-0.00100626
0.000845912
-0.00110944
0.000867382
-0.001196
0.000862965
-0.00126529
0.000835483
-0.00131805
0.000788886
-0.00135611
0.000727577
-0.00138199
0.00065584
-0.00139853
0.000577394
-0.00140847
0.000495128
-0.00141417
0.00041103
-0.00141754
0.0003263
-0.00142
0.000241509
-0.00142255
0.000156785
-0.00142592
7.20086e-05
-0.00143062
-1.30643e-05
-0.00143703
-9.88029e-05
-0.00144541
-0.000185583
-0.00145591
-0.000273776
-0.00146838
-0.000363766
-0.00148205
-0.000455918
-0.00149526
-0.000550345
-0.00150504
-0.00064657
-0.00150666
-0.000743099
-0.00149351
-0.000836778
-0.00145758
-0.000922041
-0.00139064
-0.000990518
-0.00128613
-0.00103143
-0.00114175
-0.00103303
-0.000961956
-0.000985378
-0.000759277
-0.00088404
-0.000553282
-0.000733898
-0.000366434
-0.000551023
-0.000217213
-0.000360596
-0.000113355
-0.000189676
-5.01981e-05
-5.70162e-05
-1.63441e-05
3.27864e-05
-1.29287e-06
8.46898e-05
2.74713e-06
0.000103469
1.64805e-06
9.02235e-05
4.26866e-05
-2.2993e-05
1.5547e-05
-7.24568e-05
7.72876e-05
-0.000140724
0.000166985
-0.000226279
0.000276954
-0.000328599
0.000398767
-0.000445554
0.00052526
-0.000572477
0.000648668
-0.000702732
0.000759939
-0.000829164
0.000850427
-0.000945465
0.000913887
-0.00104698
0.000947424
-0.00113096
0.000951364
-0.00119655
0.000928555
-0.00124456
0.000883499
-0.00127716
0.000821479
-0.00129733
0.000747752
-0.00130839
0.000666901
-0.00131345
0.00058245
-0.00131508
0.000496757
-0.0013152
0.000411148
-0.00131508
0.000326185
-0.0013155
0.000241932
-0.00131691
0.000158192
-0.00131958
7.46716e-05
-0.00132368
-8.96103e-06
-0.00132946
-9.3025e-05
-0.00133724
-0.000177799
-0.00134744
-0.000263573
-0.00136046
-0.000350746
-0.00137656
-0.000439818
-0.00139557
-0.000531334
-0.00141636
-0.000625785
-0.00143617
-0.000723287
-0.00145008
-0.000822872
-0.0014506
-0.000921517
-0.001428
-0.00101312
-0.00137162
-0.0010878
-0.00127259
-0.00113206
-0.00112725
-0.00113072
-0.00094045
-0.00107084
-0.000727362
-0.000946987
-0.000511976
-0.000766408
-0.000321273
-0.000551299
-0.000175856
-0.000335093
-8.16268e-05
-0.000151246
-2.96242e-05
-1.92163e-05
-5.39807e-06
6.04636e-05
2.49107e-06
9.55803e-05
2.18082e-06
9.05337e-05
4.48674e-05
-3.11689e-05
4.67158e-05
-9.24376e-05
0.000138556
-0.000172433
0.00024698
-0.000268682
0.000373203
-0.000379527
0.000509612
-0.000501281
0.000647014
-0.000627951
0.000775338
-0.00075236
0.000884349
-0.000867668
0.000965735
-0.000968491
0.00101471
-0.00105145
0.00103038
-0.00111527
0.00101519
-0.0011607
0.000973978
-0.00119006
0.000912857
-0.00120674
0.000838158
-0.00121448
0.0007555
-0.00121678
0.0006692
-0.00121643
0.000582092
-0.00121535
0.000495677
-0.00121468
0.000410487
-0.00121497
0.000326469
-0.00121634
0.000243304
-0.00121876
0.000160612
-0.00122213
7.80428e-05
-0.00122641
-4.68514e-06
-0.00123168
-8.77573e-05
-0.00123816
-0.000171314
-0.00124625
-0.000255483
-0.00125652
-0.000340473
-0.00126974
-0.000426607
-0.00128664
-0.000514427
-0.00130767
-0.000604754
-0.00133239
-0.000698567
-0.00135866
-0.000796602
-0.00138161
-0.000898567
-0.00139292
-0.00100182
-0.00138101
-0.00109971
-0.00133276
-0.00118031
-0.00123685
-0.00122663
-0.00108837
-0.00121932
-0.000893287
-0.00114207
-0.000670564
-0.000989131
-0.00044958
-0.000772283
-0.000261706
-0.000522967
-0.000127804
-0.000285147
-4.91629e-05
-9.78577e-05
-1.1281e-05
2.25816e-05
2.15579e-06
8.21435e-05
2.88019e-06
8.98093e-05
4.77476e-05
-3.85914e-05
8.53071e-05
-0.00010989
0.000209854
-0.000199148
0.000336238
-0.000302822
0.000476878
-0.000418055
0.000624844
-0.000539889
0.000768847
-0.00066158
0.000897029
-0.000776014
0.000998783
-0.000877111
0.00106683
-0.000960708
0.00109831
-0.00102492
0.00109459
-0.00107011
0.00106039
-0.00109859
0.00100246
-0.00111397
0.000928236
-0.00112037
0.000844559
-0.00112165
0.000756777
-0.00112085
0.000668395
-0.00111997
0.000581213
-0.00112007
0.000495778
-0.00112149
0.000411912
-0.00112416
0.000329135
-0.0011278
0.000246943
-0.00113211
0.000164926
-0.00113686
8.27945e-05
-0.00114192
3.75668e-07
-0.00114728
-8.24044e-05
-0.00115301
-0.000165576
-0.00115937
-0.000249129
-0.00116677
-0.000333068
-0.0011759
-0.000417481
-0.00118768
-0.000502649
-0.00120326
-0.000589169
-0.00122376
-0.000678063
-0.00124958
-0.000770788
-0.00127926
-0.000868888
-0.00130814
-0.000972942
-0.00132716
-0.00108069
-0.00132282
-0.00118465
-0.00127919
-0.00127026
-0.00118251
-0.001316
-0.00102731
-0.00129727
-0.000822005
-0.00119443
-0.000590966
-0.00100332
-0.00036995
-0.000743984
-0.00019373
-0.000461367
-7.99991e-05
-0.000211589
-2.19551e-05
-3.54624e-05
2.43713e-07
5.99446e-05
3.27168e-06
8.67813e-05
5.10193e-05
-4.44931e-05
0.0001298
-0.000123384
0.000288745
-0.000218952
0.000431807
-0.000326521
0.000584446
-0.000442149
0.000740473
-0.000560027
0.000886724
-0.000673204
0.00101021
-0.00077509
0.00110067
-0.00086068
0.00115242
-0.000927233
0.00116486
-0.000974462
0.00114182
-0.00100432
0.00109025
-0.00102041
0.00101855
-0.0010271
0.000934924
-0.00102859
0.000846054
-0.00102824
0.000756424
-0.0010282
0.000668358
-0.00102953
0.000582542
-0.00103246
0.000498703
-0.00103674
0.000416195
-0.00104197
0.000334367
-0.00104775
0.000252722
-0.00105377
0.000170942
-0.00105982
8.8849e-05
-0.00106581
6.36793e-06
-0.00107171
-7.65106e-05
-0.00107752
-0.000159759
-0.00108334
-0.000243311
-0.00108933
-0.00032708
-0.00109582
-0.000410993
-0.00110342
-0.000495047
-0.00111316
-0.00057943
-0.0011265
-0.000664725
-0.00114512
-0.000752168
-0.00117025
-0.000843757
-0.0012013
-0.000941897
-0.00123385
-0.00104813
-0.0012579
-0.0011606
-0.00125765
-0.00127052
-0.00121421
-0.00135944
-0.00111169
-0.00139978
-0.000945282
-0.00136085
-0.000727956
-0.00122065
-0.000491667
-0.000980273
-0.000279036
-0.000673998
-0.000125356
-0.000365269
-3.9684e-05
-0.000121134
-4.39691e-06
2.46575e-05
3.02978e-06
7.93546e-05
5.4049e-05
-4.83036e-05
0.000178104
-0.000131936
0.000372377
-0.000230667
0.000530537
-0.00033869
0.00069247
-0.000451224
0.000853007
-0.000562043
0.000997543
-0.000664442
0.00111261
-0.000752679
0.00118891
-0.000823015
0.00122276
-0.000874207
0.00121605
-0.000907496
0.00117511
-0.000926138
0.00110889
-0.000934534
0.00102694
-0.000937178
0.000937568
-0.00093777
0.000846646
-0.000938743
0.000757397
-0.000941254
0.000670869
-0.000945506
0.000586794
-0.000951167
0.000504364
-0.000957733
0.00042276
-0.000964741
0.000341375
-0.000971865
0.000259846
-0.000978918
0.000177995
-0.000985819
9.57496e-05
-0.000992545
1.30945e-05
-0.000999099
-6.9957e-05
-0.00100548
-0.000153373
-0.00101169
-0.000237104
-0.00101771
-0.000321066
-0.00102356
-0.00040514
-0.00102943
-0.000489176
-0.0010358
-0.000573062
-0.00104364
-0.000656882
-0.00105462
-0.000741194
-0.00107097
-0.000827405
-0.00109478
-0.000918086
-0.00112623
-0.00101668
-0.00116101
-0.00112583
-0.00118777
-0.00124375
-0.0011879
-0.00135932
-0.00113928
-0.00144839
-0.00102476
-0.00147537
-0.0008424
-0.00140301
-0.000612848
-0.00120982
-0.000377845
-0.000909001
-0.000185648
-0.000557466
-6.59169e-05
-0.000240865
-1.23403e-05
-2.89191e-05
2.03901e-06
6.49752e-05
5.6088e-05
-4.96938e-05
0.000227798
-0.000135057
0.000457741
-0.000233868
0.000629348
-0.000339265
0.000797866
-0.000445911
0.000959653
-0.000547563
0.0010992
-0.000638093
0.00120313
-0.000712803
0.00126362
-0.000769286
0.00127924
-0.000807717
0.00125448
-0.00083061
0.001198
-0.000842073
0.00112035
-0.000846724
0.00103159
-0.00084863
0.000939474
-0.000850607
0.000848624
-0.000854069
0.000760858
-0.000859307
0.000676107
-0.000865965
0.000593451
-0.000873471
0.000511871
-0.000881317
0.000430606
-0.000889165
0.000349222
-0.000896847
0.000267529
-0.000904326
0.000185473
-0.000911627
0.000103051
-0.000918802
2.02693e-05
-0.000925894
-6.28656e-05
-0.000932916
-0.000146351
-0.000939844
-0.000230177
-0.000946603
-0.000314307
-0.000953082
-0.00039866
-0.000959172
-0.000483086
-0.000964862
-0.000567373
-0.000970443
-0.000651302
-0.000976816
-0.00073482
-0.000985798
-0.000818424
-0.00100014
-0.000903743
-0.00102275
-0.000994066
-0.00105452
-0.00109406
-0.00109078
-0.00120748
-0.00111808
-0.00133203
-0.00111412
-0.00145235
-0.00105375
-0.00153574
-0.000920331
-0.00153643
-0.000718396
-0.00141176
-0.00048012
-0.00114728
-0.00025818
-0.000779407
-0.000101472
-0.000397573
-2.37494e-05
-0.000106642
3.06256e-07
4.09195e-05
5.63943e-05
-4.85776e-05
0.000276375
-0.000132719
0.000541882
-0.000228794
0.000725423
-0.000328993
0.000898065
-0.000427711
0.00105837
-0.000519004
0.00119049
-0.000597533
0.00128166
-0.000659724
0.00132581
-0.000704432
0.00132395
-0.00073303
0.00128308
-0.000748915
0.00121389
-0.000756532
0.00112797
-0.000760211
0.00103527
-0.000763231
0.000942493
-0.00076742
0.000852812
-0.000773311
0.00076675
-0.000780621
0.000683417
-0.000788753
0.000601583
-0.00079715
0.000520267
-0.000805448
0.000438904
-0.000813488
0.000357262
-0.000821258
0.000275299
-0.000828823
0.000193038
-0.000836274
0.000110503
-0.000843696
2.76912e-05
-0.000851152
-5.54091e-05
-0.000858672
-0.000138831
-0.000866246
-0.000222602
-0.000873818
-0.000306736
-0.000881264
-0.000391215
-0.000888387
-0.000475963
-0.000894945
-0.000560815
-0.000900756
-0.000645491
-0.000905928
-0.000729648
-0.000911263
-0.000813088
-0.000918738
-0.000896269
-0.000931671
-0.000981133
-0.000953797
-0.00107193
-0.000986393
-0.00117489
-0.00102366
-0.00129476
-0.00104876
-0.00142724
-0.00103496
-0.00154954
-0.00095488
-0.00161651
-0.000795888
-0.00157075
-0.00057414
-0.00136902
-0.000337119
-0.00101643
-0.000146083
-0.000588609
-3.89995e-05
-0.000213725
-2.30817e-06
4.22813e-06
5.40861e-05
-4.50745e-05
0.00032145
-0.000125264
0.000622072
-0.000216174
0.000816333
-0.000309175
0.000991066
-0.000398631
0.00114783
-0.000479126
0.00127098
-0.000546216
0.00134875
-0.000597414
0.001377
-0.000632661
0.0013592
-0.000654204
0.00130462
-0.000665881
0.00122556
-0.000672019
0.00113411
-0.000676311
0.00103957
-0.000681125
0.000947308
-0.000687414
0.000859101
-0.0006951
0.000774437
-0.000703629
0.000691946
-0.000712406
0.000610359
-0.000721024
0.000528885
-0.000729308
0.000447188
-0.000737254
0.000365208
-0.000744947
0.000282993
-0.000752504
0.000200595
-0.000760034
0.000118032
-0.000767622
3.52793e-05
-0.000775332
-4.76992e-05
-0.000783197
-0.000130965
-0.00079123
-0.00021457
-0.000799403
-0.000298562
-0.000807639
-0.000382979
-0.00081578
-0.000467822
-0.00082357
-0.000553025
-0.000830662
-0.000638399
-0.000836714
-0.000723596
-0.000841667
-0.000808136
-0.000846272
-0.000891663
-0.000852759
-0.000974646
-0.000865111
-0.00105958
-0.000887841
-0.00115216
-0.000922088
-0.00126051
-0.000959557
-0.00138978
-0.000978352
-0.00153075
-0.000946853
-0.00164801
-0.000838111
-0.00167949
-0.000649305
-0.00155783
-0.000414494
-0.00125124
-0.000197706
-0.000805397
-5.87506e-05
-0.00035268
-5.87618e-06
-4.86463e-05
4.82099e-05
-3.94577e-05
0.000360907
-0.000113291
0.000695905
-0.00019705
0.000900092
-0.000281404
0.00107542
-0.000360861
0.00122728
-0.000430673
0.0013408
-0.000487306
0.00140539
-0.000529234
0.00141893
-0.000557227
0.00138719
-0.00057404
0.00132144
-0.000583551
0.00123507
-0.000589629
0.00114018
-0.000595182
0.00104512
-0.000601728
0.000953854
-0.000609574
0.000866946
-0.000618314
0.000783177
-0.000627353
0.000700985
-0.000636232
0.000619238
-0.000644732
0.000537385
-0.000652834
0.00045529
-0.000660632
0.000373007
-0.000668257
0.000290617
-0.000675831
0.00020817
-0.000683455
0.000125656
-0.000691202
4.30258e-05
-0.000699124
-3.97769e-05
-0.000707253
-0.000122836
-0.000715606
-0.000206217
-0.00072418
-0.000289988
-0.000732939
-0.000374219
-0.000741795
-0.000458966
-0.000750571
-0.000544249
-0.000758963
-0.000630006
-0.000766532
-0.000716027
-0.000772798
-0.000801869
-0.000777578
-0.000886883
-0.000781658
-0.000970566
-0.000787691
-0.00105355
-0.000800517
-0.00113933
-0.000825286
-0.00123574
-0.000861917
-0.00135314
-0.000897496
-0.00149517
-0.000903272
-0.00164223
-0.000843864
-0.0017389
-0.000698362
-0.00170333
-0.000482083
-0.00146752
-0.000252259
-0.00103522
-8.31485e-05
-0.000521791
-1.03781e-05
-0.000121417
3.78318e-05
-3.2099e-05
0.000393006
-9.75488e-05
0.000761355
-0.000172609
0.000975152
-0.000247347
0.00115016
-0.000316528
0.00129647
-0.000376128
0.0014004
-0.000423466
0.00145272
-0.000457793
0.00145326
-0.000480419
0.00140982
-0.000494257
0.00133527
-0.000502906
0.00124372
-0.000509596
0.00114687
-0.000516448
0.00105197
-0.000524309
0.000961715
-0.000533084
0.000875722
-0.000542264
0.000792357
-0.00055135
0.000710071
-0.000560056
0.000627944
-0.000568321
0.000545651
-0.00057623
0.000463199
-0.00058392
0.000380697
-0.000591527
0.000298224
-0.000599161
0.000215804
-0.000606906
0.000133401
-0.00061482
5.09405e-05
-0.000622949
-3.16483e-05
-0.000631315
-0.00011447
-0.000639935
-0.000197598
-0.000648812
-0.000281111
-0.000657934
-0.000365097
-0.000667259
-0.000449641
-0.000676691
-0.000534817
-0.000686034
-0.000620664
-0.00069494
-0.000707121
-0.000702881
-0.000793927
-0.000709256
-0.000880508
-0.000713812
-0.00096601
-0.00071754
-0.00104982
-0.000723812
-0.00113306
-0.000738525
-0.00122103
-0.000766944
-0.00132473
-0.000805808
-0.0014563
-0.000834714
-0.00161332
-0.000817159
-0.00175646
-0.000718422
-0.00180207
-0.000533273
-0.00165267
-0.000304459
-0.00126404
-0.000111182
-0.000715068
-1.58168e-05
-0.000216782
2.2015e-05
-2.34223e-05
0.000416428
-7.88427e-05
0.000816775
-0.000144049
0.00104036
-0.000208594
0.0012147
-0.000267536
0.00135541
-0.000317576
0.00145044
-0.000356781
0.00149193
-0.000384966
0.00148144
-0.000403697
0.00142855
-0.000415756
0.00134733
-0.000424252
0.00125222
-0.000431718
0.00115434
-0.000439594
0.00105985
-0.000448259
0.00097038
-0.000457427
0.00088489
-0.000466625
0.000801554
-0.0004755
0.000718947
-0.000483924
0.000636368
-0.000491944
0.00055367
-0.000499692
0.000470948
-0.000507315
0.000388319
-0.000514933
0.000305843
-0.000522642
0.000223512
-0.000530511
0.000141271
-0.000538592
5.90219e-05
-0.000546926
-2.33147e-05
-0.000555529
-0.000105867
-0.000564412
-0.000188714
-0.00057358
-0.000271944
-0.000583023
-0.000355654
-0.00059272
-0.000439943
-0.000602622
-0.000524915
-0.000612619
-0.000610666
-0.000622494
-0.000697247
-0.00063184
-0.000784581
-0.000640034
-0.000872314
-0.000646372
-0.000959673
-0.00065064
-0.00104555
-0.000654305
-0.00112939
-0.000661859
-0.00121348
-0.00068033
-0.00130625
-0.000713766
-0.00142287
-0.00075242
-0.00157467
-0.000765415
-0.00174346
-0.000710741
-0.00185674
-0.000564221
-0.00179919
-0.00034927
-0.00147899
-0.000140857
-0.000923481
-2.20898e-05
-0.000335549
-7.47974e-08
-1.38686e-05
0.000430297
-5.79709e-05
0.000860878
-0.000112495
0.00109488
-0.000166558
0.00126877
-0.000215489
0.00140434
-0.000256666
0.00149161
-0.000288776
0.00152404
-0.000311991
0.00150466
-0.000327885
0.00144444
-0.000338894
0.00135834
-0.000347525
0.00126085
-0.000355644
0.00116246
-0.00036416
0.00106836
-0.000373164
0.000979384
-0.000382327
0.000894054
-0.000391282
0.000810509
-0.000399821
0.000727486
-0.000407931
0.000644478
-0.000415716
0.000561456
-0.000423323
0.000478555
-0.000430887
0.000395883
-0.000438511
0.000313468
-0.000446277
0.000231278
-0.000454249
0.000149242
-0.000462479
6.72523e-05
-0.000471009
-1.47842e-05
-0.000479853
-9.70225e-05
-0.000489018
-0.000179549
-0.000498501
-0.000262461
-0.00050829
-0.000345864
-0.000518367
-0.000429866
-0.0005287
-0.000514582
-0.00053923
-0.000600137
-0.000549828
-0.000686649
-0.000560234
-0.000774174
-0.000569969
-0.00086258
-0.000578297
-0.000951345
-0.000584449
-0.0010394
-0.000588443
-0.0011254
-0.000592656
-0.00120926
-0.000603175
-0.00129574
-0.000627658
-0.00139838
-0.000666
-0.00153633
-0.000697373
-0.00171209
-0.000679666
-0.00187445
-0.0005741
-0.00190475
-0.000382983
-0.0016701
-0.0001696
-0.00113687
-2.94074e-05
-0.000475741
-2.94822e-05
-3.85765e-06
0.000434155
-3.56977e-05
0.000892718
-7.89558e-05
0.00113814
-0.000122441
0.00131225
-0.000161674
0.00144357
-0.000194634
0.00152457
-0.000220496
0.0015499
-0.000239609
0.00152377
-0.00025336
0.00145819
-0.000263698
0.00136868
-0.000272492
0.00126964
-0.000281019
0.00117099
-0.000289795
0.00107714
-0.000298769
0.000988358
-0.000307657
0.000902941
-0.000316214
0.000819066
-0.000324354
0.000735626
-0.000332133
0.000652257
-0.000339681
0.000569004
-0.000347137
0.000486011
-0.000354619
0.000403365
-0.000362217
0.000321066
-0.000370002
0.000239064
-0.000378039
0.00015728
-0.00038639
7.56029e-05
-0.0003951
-6.07412e-06
-0.000404185
-8.79371e-05
-0.000413649
-0.000170084
-0.000423481
-0.000252629
-0.000433664
-0.000335681
-0.000444175
-0.000419355
-0.000454985
-0.000503771
-0.000466055
-0.000589067
-0.000477306
-0.000675398
-0.000488578
-0.000762902
-0.000499546
-0.000851611
-0.000509625
-0.000941266
-0.000517965
-0.00103106
-0.000523831
-0.00111954
-0.000527817
-0.00120528
-0.000533845
-0.00128971
-0.000549851
-0.00138238
-0.000582176
-0.001504
-0.0006213
-0.00167297
-0.00063123
-0.00186452
-0.00056463
-0.00197135
-0.000403713
-0.00183102
-0.000194969
-0.00134561
-3.78323e-05
-0.000632878
-6.73145e-05
6.07324e-06
0.000428081
-1.26914e-05
0.000911482
-4.43219e-05
0.00116977
-7.72326e-05
0.00134516
-0.000107088
0.00147343
-0.000132363
0.00154985
-0.000152607
0.00157014
-0.000168202
0.00153937
-0.000180213
0.0014702
-0.000190023
0.00137849
-0.000198873
0.00127849
-0.000207534
0.00117965
-0.000216252
0.00108586
-0.000224926
0.000997032
-0.000233356
0.000911372
-0.000241418
0.000827127
-0.000249113
0.000743321
-0.000256536
0.000659681
-0.000263821
0.000576288
-0.00027109
0.00049328
-0.000278446
0.000410721
-0.000285972
0.000328592
-0.000293733
0.000246825
-0.000301793
0.000165341
-0.000310229
8.40383e-05
-0.000319093
2.79082e-06
-0.000328413
-7.86167e-05
-0.000338189
-0.000160308
-0.0003484
-0.000242417
-0.000359024
-0.000325057
-0.000370033
-0.000408347
-0.000381396
-0.000492408
-0.000393077
-0.000577385
-0.000405023
-0.000663452
-0.000417127
-0.000750798
-0.000429175
-0.000839564
-0.000440745
-0.000929695
-0.000451122
-0.00102068
-0.000459369
-0.00111129
-0.000465012
-0.00119963
-0.000469815
-0.0012849
-0.000479981
-0.00137221
-0.000504572
-0.00147941
-0.000543804
-0.00163373
-0.000571815
-0.00183651
-0.000539227
-0.00200394
-0.000411353
-0.0019589
-0.000215202
-0.00154176
-4.69409e-05
-0.000801139
-0.000114255
1.53163e-05