/*--------------------------------*- C++ -*----------------------------------*\
  =========                 |
  \\      /  F ield         | OpenFOAM: The Open Source CFD Toolbox
   \\    /   O peration     | Website:  https://openfoam.org
    \\  /    A nd           | Version:  7
     \\/     M anipulation  |
\*---------------------------------------------------------------------------*/
FoamFile
{
    version     2.0;
    format      ascii;
    class       volVectorField;
    location    "900";
    object      U;
}
// * * * * * * * * * * * * * * * * * * * * * * * * * * * * * * * * * * * * * //

dimensions      [0 1 -1 0 0 0 0];

internalField   nonuniform List<vector> 
2500
(
(0.000206732 -0.000202099 0)
(0.00186516 -0.000571611 0)
(0.00447424 -0.000698047 0)
(0.00716371 -0.000600117 0)
(0.00922984 -0.00041904 0)
(0.0104511 -0.000264355 0)
(0.0109308 -0.000188035 0)
(0.0108815 -0.000185919 0)
(0.0104507 -0.000219908 0)
(0.00963386 -0.00024546 0)
(0.00828165 -0.000228685 0)
(0.00616168 -0.000150732 0)
(0.00301662 -2.55331e-06 0)
(-0.0013973 0.000221232 0)
(-0.00728479 0.000523766 0)
(-0.0147784 0.000908601 0)
(-0.0239007 0.00137575 0)
(-0.0345215 0.00191361 0)
(-0.0463232 0.00248895 0)
(-0.0587796 0.00303948 0)
(-0.0711623 0.0034754 0)
(-0.0825776 0.0036921 0)
(-0.0920363 0.00359112 0)
(-0.0985556 0.00310721 0)
(-0.10127 0.00223456 0)
(-0.0995055 0.00103123 0)
(-0.0929931 -0.000372019 0)
(-0.0818062 -0.00180959 0)
(-0.0664119 -0.00310789 0)
(-0.0476668 -0.00409993 0)
(-0.0267894 -0.00464075 0)
(-0.00526211 -0.00460779 0)
(0.0153889 -0.00393856 0)
(0.0336935 -0.00278763 0)
(0.0483445 -0.00137474 0)
(0.0583854 0.000122326 0)
(0.0634353 0.00149391 0)
(0.0637064 0.00253189 0)
(0.060004 0.00311032 0)
(0.0534936 0.00322401 0)
(0.045407 0.00298616 0)
(0.036848 0.00254965 0)
(0.0286536 0.00204891 0)
(0.0213443 0.00157462 0)
(0.01515 0.0011745 0)
(0.0100818 0.000863648 0)
(0.00603041 0.000631432 0)
(0.00290201 0.000436184 0)
(0.000795747 0.000192925 0)
(-8.19482e-05 -8.73447e-05 0)
(0.000566008 -0.00182016 0)
(0.00437406 -0.00431832 0)
(0.00958205 -0.00511778 0)
(0.014604 -0.0044411 0)
(0.0181615 -0.00299825 0)
(0.0197678 -0.00145751 0)
(0.0194615 -0.000192002 0)
(0.0174538 0.000766268 0)
(0.0138299 0.0016262 0)
(0.00840051 0.00266655 0)
(0.000728802 0.00410462 0)
(-0.00974164 0.00604632 0)
(-0.02354 0.00849584 0)
(-0.0410287 0.0113861 0)
(-0.062288 0.0145787 0)
(-0.0870103 0.0178479 0)
(-0.114438 0.0208732 0)
(-0.143375 0.0232622 0)
(-0.172301 0.0246063 0)
(-0.199533 0.0245481 0)
(-0.223416 0.0228406 0)
(-0.24247 0.0193842 0)
(-0.255494 0.014243 0)
(-0.261633 0.00764955 0)
(-0.260412 -6.39457e-06 0)
(-0.251764 -0.00820875 0)
(-0.235881 -0.0163871 0)
(-0.213214 -0.0239874 0)
(-0.184528 -0.0304468 0)
(-0.15091 -0.0352314 0)
(-0.113771 -0.0378789 0)
(-0.0748083 -0.0380453 0)
(-0.0359326 -0.0355856 0)
(0.000922748 -0.0306826 0)
(0.0339123 -0.0238347 0)
(0.0613584 -0.0157676 0)
(0.0819435 -0.00730264 0)
(0.0949457 0.000677699 0)
(0.10023 0.00732993 0)
(0.0984091 0.0120715 0)
(0.0909379 0.0147045 0)
(0.0796022 0.0154303 0)
(0.0662282 0.0147133 0)
(0.052414 0.0131071 0)
(0.0393382 0.0111174 0)
(0.0276956 0.00911102 0)
(0.0177751 0.00724964 0)
(0.00968344 0.0054355 0)
(0.00372685 0.00334396 0)
(0.000329408 0.000918873 0)
(0.000785736 -0.00449671 0)
(0.00568852 -0.00969674 0)
(0.0117177 -0.0109182 0)
(0.016906 -0.00900573 0)
(0.0197624 -0.0054232 0)
(0.01971 -0.0014683 0)
(0.0166664 0.00215468 0)
(0.0106292 0.00542595 0)
(0.00137296 0.00878477 0)
(-0.0116343 0.0127976 0)
(-0.0291057 0.0178504 0)
(-0.0516689 0.0240203 0)
(-0.0796292 0.0310957 0)
(-0.112757 0.0386126 0)
(-0.150177 0.0458908 0)
(-0.190414 0.0521113 0)
(-0.231578 0.0564503 0)
(-0.271635 0.0582218 0)
(-0.308659 0.0569797 0)
(-0.341026 0.0525579 0)
(-0.367497 0.0450558 0)
(-0.387229 0.0347888 0)
(-0.399709 0.0222301 0)
(-0.404677 0.00795993 0)
(-0.402058 -0.00737248 0)
(-0.391826 -0.023085 0)
(-0.374022 -0.0384651 0)
(-0.348916 -0.0527245 0)
(-0.316988 -0.06503 0)
(-0.279006 -0.0745427 0)
(-0.236063 -0.0804864 0)
(-0.189596 -0.0822514 0)
(-0.141362 -0.0795088 0)
(-0.0933636 -0.0723133 0)
(-0.0477161 -0.0612112 0)
(-0.00641361 -0.0472078 0)
(0.0288214 -0.0315952 0)
(0.0566302 -0.0158207 0)
(0.0763201 -0.00117437 0)
(0.0876184 0.011147 0)
(0.0907865 0.0202354 0)
(0.0870774 0.0257267 0)
(0.0781962 0.0278526 0)
(0.0660326 0.0273022 0)
(0.0523869 0.0249744 0)
(0.0387205 0.0217245 0)
(0.0260341 0.0181229 0)
(0.0149684 0.0142404 0)
(0.00625679 0.00958425 0)
(0.000705287 0.00358741 0)
(0.000917785 -0.00772817 0)
(0.00606816 -0.0155941 0)
(0.0115453 -0.0165383 0)
(0.0151616 -0.0124507 0)
(0.0154139 -0.00573121 0)
(0.0117433 0.00170327 0)
(0.00392518 0.00894752 0)
(-0.00838952 0.0161103 0)
(-0.0258663 0.0239547 0)
(-0.0493206 0.0332315 0)
(-0.0793898 0.0442206 0)
(-0.116171 0.0565806 0)
(-0.158996 0.0694354 0)
(-0.206409 0.0815618 0)
(-0.256373 0.091631 0)
(-0.306602 0.098457 0)
(-0.354922 0.101192 0)
(-0.399526 0.0994153 0)
(-0.439082 0.0931134 0)
(-0.472712 0.0825872 0)
(-0.499892 0.0683372 0)
(-0.520325 0.050963 0)
(-0.533819 0.0310943 0)
(-0.540207 0.0093639 0)
(-0.53933 -0.0135675 0)
(-0.531006 -0.0369648 0)
(-0.51511 -0.0599806 0)
(-0.491608 -0.0816566 0)
(-0.460603 -0.100927 0)
(-0.422424 -0.116645 0)
(-0.377691 -0.127672 0)
(-0.32741 -0.133013 0)
(-0.273052 -0.131976 0)
(-0.216559 -0.124349 0)
(-0.160245 -0.110565 0)
(-0.106588 -0.0917373 0)
(-0.0579378 -0.0695657 0)
(-0.016166 -0.0460519 0)
(0.0175325 -0.0231107 0)
(0.0425676 -0.00248592 0)
(0.0588776 0.0145858 0)
(0.0667215 0.0271806 0)
(0.0672103 0.0349231 0)
(0.0618992 0.0381543 0)
(0.0525778 0.0377782 0)
(0.0410374 0.03493 0)
(0.0288293 0.0305673 0)
(0.0171888 0.0250323 0)
(0.007421 0.0177411 0)
(0.000862087 0.00736663 0)
(0.000999767 -0.0110192 0)
(0.00561016 -0.0208285 0)
(0.00922655 -0.0203474 0)
(0.00967324 -0.0128988 0)
(0.00561206 -0.00193078 0)
(-0.00347587 0.010134 0)
(-0.0180555 0.0223951 0)
(-0.0388826 0.0352966 0)
(-0.066891 0.0497782 0)
(-0.102732 0.0663653 0)
(-0.146304 0.0846846 0)
(-0.19653 0.103505 0)
(-0.25147 0.121095 0)
(-0.308676 0.135661 0)
(-0.365643 0.145717 0)
(-0.42019 0.150312 0)
(-0.470673 0.14908 0)
(-0.51601 0.142147 0)
(-0.555572 0.129967 0)
(-0.589031 0.11316 0)
(-0.616233 0.092398 0)
(-0.637097 0.0683459 0)
(-0.651552 0.0416332 0)
(-0.659517 0.0128828 0)
(-0.660898 -0.0172423 0)
(-0.655565 -0.0480102 0)
(-0.643292 -0.0785765 0)
(-0.623797 -0.107935 0)
(-0.596805 -0.134891 0)
(-0.562087 -0.158084 0)
(-0.519578 -0.176054 0)
(-0.469569 -0.187338 0)
(-0.412881 -0.190669 0)
(-0.350994 -0.185271 0)
(-0.286103 -0.171133 0)
(-0.221043 -0.149187 0)
(-0.158986 -0.121318 0)
(-0.102934 -0.0901298 0)
(-0.0551739 -0.0584775 0)
(-0.0168957 -0.0288795 0)
(0.0117742 -0.00311171 0)
(0.0312161 0.0176236 0)
(0.041983 0.0326563 0)
(0.0452788 0.0418318 0)
(0.0426229 0.0456883 0)
(0.0357415 0.0452936 0)
(0.0263976 0.0417572 0)
(0.0162495 0.0355994 0)
(0.00710931 0.0261579 0)
(0.000796423 0.0113835 0)
(0.000995644 -0.0139236 0)
(0.00416021 -0.0242938 0)
(0.00457681 -0.020875 0)
(0.000388331 -0.00872019 0)
(-0.00947819 0.00766869 0)
(-0.0255854 0.0256102 0)
(-0.0486767 0.0445032 0)
(-0.0797323 0.0650209 0)
(-0.119466 0.0878193 0)
(-0.167693 0.112584 0)
(-0.223069 0.13786 0)
(-0.283288 0.161493 0)
(-0.345583 0.181261 0)
(-0.407262 0.195389 0)
(-0.466102 0.202807 0)
(-0.520521 0.203168 0)
(-0.569546 0.196699 0)
(-0.61267 0.183979 0)
(-0.649697 0.16575 0)
(-0.68063 0.142795 0)
(-0.705601 0.115874 0)
(-0.724803 0.0856828 0)
(-0.738451 0.0528617 0)
(-0.74675 0.0180306 0)
(-0.749816 -0.0182101 0)
(-0.747634 -0.0552644 0)
(-0.739997 -0.0924335 0)
(-0.726489 -0.128816 0)
(-0.706502 -0.163297 0)
(-0.67925 -0.194511 0)
(-0.643928 -0.220799 0)
(-0.599908 -0.240271 0)
(-0.546952 -0.251032 0)
(-0.485493 -0.251496 0)
(-0.416939 -0.240746 0)
(-0.343835 -0.218926 0)
(-0.269757 -0.187542 0)
(-0.198889 -0.149457 0)
(-0.135281 -0.108441 0)
(-0.0819397 -0.0683707 0)
(-0.0401563 -0.0323661 0)
(-0.00955621 -0.00229293 0)
(0.0110277 0.0211162 0)
(0.0227864 0.0375804 0)
(0.0271479 0.047315 0)
(0.0257759 0.0511017 0)
(0.0204607 0.0499343 0)
(0.0130756 0.0443176 0)
(0.00574826 0.0334768 0)
(0.000590901 0.0148941 0)
(0.000839619 -0.015864 0)
(0.00148135 -0.0247667 0)
(-0.00260167 -0.0166877 0)
(-0.0126962 0.00146014 0)
(-0.0295868 0.0244181 0)
(-0.0539481 0.0495896 0)
(-0.0866796 0.076666 0)
(-0.12854 0.106111 0)
(-0.179403 0.137675 0)
(-0.237839 0.169811 0)
(-0.30132 0.200038 0)
(-0.366812 0.225723 0)
(-0.431402 0.244751 0)
(-0.492726 0.25586 0)
(-0.549128 0.25866 0)
(-0.599613 0.253433 0)
(-0.643706 0.240884 0)
(-0.681307 0.221923 0)
(-0.712597 0.197523 0)
(-0.737967 0.168637 0)
(-0.757946 0.136131 0)
(-0.773114 0.100747 0)
(-0.784054 0.063126 0)
(-0.79126 0.0238038 0)
(-0.795043 -0.0167962 0)
(-0.795536 -0.0582829 0)
(-0.792671 -0.100194 0)
(-0.786014 -0.141922 0)
(-0.774794 -0.182655 0)
(-0.757916 -0.221223 0)
(-0.734045 -0.255998 0)
(-0.701689 -0.284935 0)
(-0.659413 -0.305696 0)
(-0.606239 -0.315851 0)
(-0.542108 -0.313271 0)
(-0.468293 -0.296725 0)
(-0.387683 -0.266478 0)
(-0.304766 -0.224677 0)
(-0.225082 -0.175334 0)
(-0.154103 -0.123679 0)
(-0.0958282 -0.0749083 0)
(-0.0517199 -0.0328171 0)
(-0.0207659 0.000840055 0)
(-0.00075839 0.0259258 0)
(0.0102984 0.0427722 0)
(0.0143069 0.0520012 0)
(0.0132031 0.0544094 0)
(0.00901059 0.0503498 0)
(0.00399971 0.038925 0)
(0.000362132 0.0174916 0)
(0.000464617 -0.0160952 0)
(-0.00257685 -0.0209671 0)
(-0.0122922 -0.00660752 0)
(-0.0292452 0.0186722 0)
(-0.0539662 0.049289 0)
(-0.0872068 0.0828986 0)
(-0.129691 0.119148 0)
(-0.181425 0.15769 0)
(-0.241084 0.196972 0)
(-0.30608 0.23428 0)
(-0.373176 0.266569 0)
(-0.439203 0.291298 0)
(-0.501558 0.306906 0)
(-0.558397 0.312858 0)
(-0.608609 0.309446 0)
(-0.651688 0.297503 0)
(-0.687608 0.278158 0)
(-0.716728 0.252651 0)
(-0.739702 0.22222 0)
(-0.757377 0.187992 0)
(-0.770671 0.150911 0)
(-0.780489 0.111723 0)
(-0.787642 0.07098 0)
(-0.792759 0.0290353 0)
(-0.796282 -0.0138904 0)
(-0.798493 -0.0576105 0)
(-0.79945 -0.101969 0)
(-0.798826 -0.146751 0)
(-0.795974 -0.191524 0)
(-0.789877 -0.235478 0)
(-0.77905 -0.277344 0)
(-0.761522 -0.315321 0)
(-0.735008 -0.34699 0)
(-0.697233 -0.369366 0)
(-0.646369 -0.379264 0)
(-0.581648 -0.37387 0)
(-0.504076 -0.351483 0)
(-0.416944 -0.312336 0)
(-0.325829 -0.259251 0)
(-0.237882 -0.19766 0)
(-0.160296 -0.134645 0)
(-0.0982563 -0.0770449 0)
(-0.0533288 -0.0294087 0)
(-0.0235903 0.00684315 0)
(-0.00556906 0.0324284 0)
(0.00360838 0.0482784 0)
(0.00645428 0.0552373 0)
(0.00528713 0.0535805 0)
(0.00248669 0.0423722 0)
(0.000209176 0.0191554 0)
(-0.000172518 -0.013783 0)
(-0.00796956 -0.0118213 0)
(-0.0241293 0.0102151 0)
(-0.0484495 0.0435214 0)
(-0.0812477 0.0826596 0)
(-0.12316 0.125412 0)
(-0.174323 0.170848 0)
(-0.233664 0.217369 0)
(-0.298715 0.262124 0)
(-0.366142 0.30166 0)
(-0.432524 0.332915 0)
(-0.494954 0.353879 0)
(-0.551319 0.363747 0)
(-0.600319 0.362744 0)
(-0.641374 0.351815 0)
(-0.674517 0.332336 0)
(-0.700277 0.305881 0)
(-0.71956 0.274038 0)
(-0.733497 0.238265 0)
(-0.743283 0.199773 0)
(-0.750051 0.159481 0)
(-0.754799 0.118028 0)
(-0.758324 0.0757812 0)
(-0.761212 0.0328967 0)
(-0.763923 -0.0105723 0)
(-0.766779 -0.0546445 0)
(-0.769888 -0.0994317 0)
(-0.773149 -0.145011 0)
(-0.776265 -0.191285 0)
(-0.778574 -0.237923 0)
(-0.778881 -0.284248 0)
(-0.775377 -0.329012 0)
(-0.765629 -0.370172 0)
(-0.746635 -0.40482 0)
(-0.715126 -0.429303 0)
(-0.668234 -0.439534 0)
(-0.604396 -0.431705 0)
(-0.524296 -0.403383 0)
(-0.43161 -0.35473 0)
(-0.333156 -0.289406 0)
(-0.237982 -0.214612 0)
(-0.155233 -0.139755 0)
(-0.0912616 -0.0736598 0)
(-0.0474132 -0.0215637 0)
(-0.0204374 0.0157815 0)
(-0.00547796 0.0400968 0)
(0.00120114 0.0527661 0)
(0.00267198 0.0543782 0)
(0.00160525 0.0441961 0)
(0.0001839 0.0201659 0)
(-0.00107337 -0.00815964 0)
(-0.0144204 0.00341924 0)
(-0.0373756 0.034159 0)
(-0.0690542 0.0760639 0)
(-0.109512 0.124153 0)
(-0.159002 0.175967 0)
(-0.21678 0.229532 0)
(-0.280687 0.281887 0)
(-0.347448 0.329219 0)
(-0.413451 0.367861 0)
(-0.475468 0.395182 0)
(-0.531056 0.409938 0)
(-0.578669 0.412164 0)
(-0.617609 0.402859 0)
(-0.647934 0.38365 0)
(-0.67033 0.356481 0)
(-0.685944 0.323352 0)
(-0.696172 0.286102 0)
(-0.70245 0.24625 0)
(-0.706076 0.204924 0)
(-0.708131 0.162866 0)
(-0.709441 0.120496 0)
(-0.710586 0.0779669 0)
(-0.711969 0.0352772 0)
(-0.713911 -0.00765894 0)
(-0.716656 -0.0510073 0)
(-0.720323 -0.0949816 0)
(-0.725038 -0.139772 0)
(-0.730834 -0.185529 0)
(-0.737512 -0.232343 0)
(-0.744504 -0.280099 0)
(-0.750713 -0.32824 0)
(-0.75426 -0.375536 0)
(-0.752292 -0.419835 0)
(-0.741054 -0.457803 0)
(-0.716298 -0.484903 0)
(-0.674044 -0.495853 0)
(-0.611743 -0.485622 0)
(-0.52967 -0.450881 0)
(-0.432028 -0.391687 0)
(-0.327145 -0.312824 0)
(-0.226236 -0.22388 0)
(-0.14049 -0.137216 0)
(-0.0771279 -0.0638527 0)
(-0.0365999 -0.00933562 0)
(-0.0137872 0.0267848 0)
(-0.00263017 0.047134 0)
(0.0013016 0.05324 0)
(0.00144631 0.0450126 0)
(0.000288195 0.0209433 0)
(-0.00218055 0.00132173 0)
(-0.0214309 0.0250421 0)
(-0.0510288 0.0650852 0)
(-0.0895095 0.115767 0)
(-0.136559 0.172636 0)
(-0.191818 0.23258 0)
(-0.25359 0.292347 0)
(-0.318866 0.34781 0)
(-0.383977 0.394665 0)
(-0.445407 0.429493 0)
(-0.50035 0.450389 0)
(-0.54695 0.45701 0)
(-0.584327 0.450296 0)
(-0.612508 0.432075 0)
(-0.632294 0.404674 0)
(-0.645046 0.370554 0)
(-0.652416 0.331996 0)
(-0.656063 0.290871 0)
(-0.657438 0.248539 0)
(-0.657668 0.205855 0)
(-0.657543 0.163266 0)
(-0.657553 0.120921 0)
(-0.657972 0.0787878 0)
(-0.658948 0.0367488 0)
(-0.660591 -0.00536482 0)
(-0.66303 -0.0477425 0)
(-0.666374 -0.0905581 0)
(-0.670824 -0.133995 0)
(-0.67659 -0.178291 0)
(-0.683858 -0.223723 0)
(-0.692702 -0.270518 0)
(-0.702874 -0.318753 0)
(-0.71348 -0.36815 0)
(-0.72266 -0.417684 0)
(-0.727332 -0.465095 0)
(-0.723101 -0.506517 0)
(-0.704619 -0.53642 0)
(-0.666613 -0.548093 0)
(-0.605509 -0.534916 0)
(-0.521259 -0.492455 0)
(-0.418815 -0.420875 0)
(-0.308398 -0.326738 0)
(-0.203735 -0.222918 0)
(-0.117983 -0.125433 0)
(-0.0584639 -0.0474051 0)
(-0.0236504 0.00621981 0)
(-0.00619329 0.0377434 0)
(0.000677437 0.050378 0)
(0.00180927 0.0453475 0)
(0.000485777 0.0218706 0)
(-0.00335867 0.0148941 0)
(-0.028354 0.0528452 0)
(-0.0639693 0.102368 0)
(-0.108207 0.161547 0)
(-0.160271 0.226386 0)
(-0.21909 0.292825 0)
(-0.28214 0.356353 0)
(-0.345905 0.412045 0)
(-0.406682 0.455569 0)
(-0.461306 0.484104 0)
(-0.507551 0.496668 0)
(-0.544262 0.493932 0)
(-0.571344 0.477813 0)
(-0.589627 0.450987 0)
(-0.600633 0.416408 0)
(-0.606239 0.376866 0)
(-0.608326 0.334657 0)
(-0.6085 0.291422 0)
(-0.607944 0.24815 0)
(-0.607408 0.205305 0)
(-0.607279 0.163001 0)
(-0.607697 0.121151 0)
(-0.608663 0.0795922 0)
(-0.610112 0.0381488 0)
(-0.611994 -0.00334836 0)
(-0.614357 -0.0450271 0)
(-0.617263 -0.0869832 0)
(-0.620853 -0.129327 0)
(-0.625365 -0.172226 0)
(-0.631142 -0.215912 0)
(-0.638594 -0.260708 0)
(-0.648066 -0.307037 0)
(-0.659637 -0.355292 0)
(-0.672783 -0.405523 0)
(-0.685877 -0.456947 0)
(-0.695667 -0.507301 0)
(-0.69707 -0.552181 0)
(-0.683608 -0.584771 0)
(-0.64866 -0.596491 0)
(-0.587572 -0.578831 0)
(-0.500163 -0.526251 0)
(-0.39265 -0.439511 0)
(-0.277778 -0.32803 0)
(-0.17211 -0.209286 0)
(-0.0902981 -0.10359 0)
(-0.0383274 -0.0252952 0)
(-0.0113416 0.0228896 0)
(-0.00015712 0.0453526 0)
(0.00229608 0.0453448 0)
(0.000720531 0.0231526 0)
(-0.00444381 0.0324048 0)
(-0.0345372 0.0861633 0)
(-0.0751404 0.14495 0)
(-0.123718 0.211895 0)
(-0.178935 0.283365 0)
(-0.239037 0.354226 0)
(-0.300916 0.41892 0)
(-0.360882 0.472143 0)
(-0.415471 0.509922 0)
(-0.462047 0.530296 0)
(-0.499081 0.533361 0)
(-0.526223 0.520897 0)
(-0.544208 0.495821 0)
(-0.554619 0.461574 0)
(-0.559504 0.421523 0)
(-0.560951 0.378488 0)
(-0.560734 0.33448 0)
(-0.560119 0.290681 0)
(-0.559845 0.2476 0)
(-0.56022 0.2053 0)
(-0.561274 0.163619 0)
(-0.562895 0.122327 0)
(-0.564926 0.08121 0)
(-0.56721 0.0400987 0)
(-0.569642 -0.0011226 0)
(-0.572228 -0.0425128 0)
(-0.574988 -0.0841027 0)
(-0.577975 -0.125915 0)
(-0.581352 -0.167993 0)
(-0.585393 -0.210436 0)
(-0.590495 -0.253471 0)
(-0.597192 -0.297509 0)
(-0.606102 -0.343144 0)
(-0.617713 -0.391073 0)
(-0.631919 -0.441784 0)
(-0.647364 -0.494884 0)
(-0.66072 -0.548089 0)
(-0.666245 -0.59624 0)
(-0.656171 -0.630893 0)
(-0.622393 -0.641151 0)
(-0.55933 -0.616256 0)
(-0.467194 -0.54976 0)
(-0.354281 -0.444106 0)
(-0.236659 -0.313372 0)
(-0.13389 -0.181274 0)
(-0.0609099 -0.0724437 0)
(-0.0200608 -0.000220249 0)
(-0.00227163 0.0369274 0)
(0.00246839 0.0446192 0)
(0.000939833 0.02475 0)
(-0.00528767 0.0532914 0)
(-0.0394197 0.123938 0)
(-0.0836843 0.191459 0)
(-0.134979 0.265079 0)
(-0.19143 0.341497 0)
(-0.250735 0.414556 0)
(-0.309478 0.477965 0)
(-0.364065 0.526427 0)
(-0.411465 0.556645 0)
(-0.449691 0.567714 0)
(-0.477993 0.560927 0)
(-0.496847 0.53921 0)
(-0.507753 0.506405 0)
(-0.512834 0.466496 0)
(-0.514354 0.422942 0)
(-0.514269 0.378266 0)
(-0.513968 0.33395 0)
(-0.514222 0.290607 0)
(-0.515301 0.248278 0)
(-0.517155 0.206721 0)
(-0.519593 0.165623 0)
(-0.522397 0.124716 0)
(-0.525385 0.0838079 0)
(-0.528417 0.0427823 0)
(-0.531407 0.00158117 0)
(-0.534358 -0.0398098 0)
(-0.537286 -0.0813798 0)
(-0.540183 -0.123101 0)
(-0.543111 -0.164937 0)
(-0.546182 -0.206877 0)
(-0.549613 -0.24898 0)
(-0.553801 -0.291443 0)
(-0.559375 -0.334704 0)
(-0.567166 -0.379539 0)
(-0.578021 -0.427019 0)
(-0.592309 -0.47812 0)
(-0.609039 -0.532851 0)
(-0.624767 -0.588871 0)
(-0.632909 -0.639997 0)
(-0.624245 -0.675543 0)
(-0.589174 -0.681631 0)
(-0.521541 -0.645078 0)
(-0.422822 -0.559321 0)
(-0.304634 -0.430451 0)
(-0.187278 -0.279816 0)
(-0.0928364 -0.138961 0)
(-0.0339644 -0.0352025 0)
(-0.00650618 0.0231569 0)
(0.00201071 0.0423008 0)
(0.00111621 0.0264123 0)
(-0.00576901 0.076648 0)
(-0.0425896 0.164835 0)
(-0.089028 0.240347 0)
(-0.141374 0.319325 0)
(-0.197276 0.398883 0)
(-0.254071 0.472019 0)
(-0.308282 0.532042 0)
(-0.356612 0.574003 0)
(-0.396591 0.595516 0)
(-0.426946 0.596885 0)
(-0.447715 0.580654 0)
(-0.460125 0.550842 0)
(-0.466234 0.512007 0)
(-0.468411 0.468357 0)
(-0.4688 0.423099 0)
(-0.46896 0.37819 0)
(-0.469759 0.334468 0)
(-0.471476 0.292004 0)
(-0.474024 0.250489 0)
(-0.477151 0.209524 0)
(-0.480599 0.168775 0)
(-0.484169 0.128017 0)
(-0.487736 0.0871265 0)
(-0.491227 0.046045 0)
(-0.494604 0.00475538 0)
(-0.497897 -0.0367356 0)
(-0.501136 -0.0784042 0)
(-0.504289 -0.12022 0)
(-0.507349 -0.162131 0)
(-0.51031 -0.204075 0)
(-0.51321 -0.24599 0)
(-0.516192 -0.28787 0)
(-0.519595 -0.329866 0)
(-0.52406 -0.372448 0)
(-0.530603 -0.416565 0)
(-0.540448 -0.463662 0)
(-0.554436 -0.515289 0)
(-0.571879 -0.571912 0)
(-0.589092 -0.630913 0)
(-0.598405 -0.684468 0)
(-0.58886 -0.718789 0)
(-0.549424 -0.716331 0)
(-0.474146 -0.661663 0)
(-0.367256 -0.549864 0)
(-0.245284 -0.393989 0)
(-0.133327 -0.226065 0)
(-0.0540382 -0.08584 0)
(-0.0133523 0.00162454 0)
(0.000771357 0.0372093 0)
(0.00125353 0.0277809 0)
(-0.00581238 0.101341 0)
(-0.0438148 0.207374 0)
(-0.0909084 0.290038 0)
(-0.142735 0.372985 0)
(-0.196569 0.453943 0)
(-0.249573 0.525316 0)
(-0.298414 0.580332 0)
(-0.340227 0.61466 0)
(-0.373163 0.627003 0)
(-0.396665 0.618951 0)
(-0.411485 0.594279 0)
(-0.419418 0.557925 0)
(-0.422811 0.51487 0)
(-0.423964 0.469195 0)
(-0.424655 0.423568 0)
(-0.425919 0.379247 0)
(-0.42812 0.336445 0)
(-0.431173 0.294823 0)
(-0.434797 0.25389 0)
(-0.438695 0.21323 0)
(-0.442651 0.172573 0)
(-0.446549 0.131782 0)
(-0.450346 0.0908053 0)
(-0.454033 0.0496278 0)
(-0.457613 0.0082517 0)
(-0.461148 -0.0333134 0)
(-0.464678 -0.0750526 0)
(-0.468176 -0.116958 0)
(-0.471612 -0.158997 0)
(-0.47494 -0.20111 0)
(-0.478098 -0.243208 0)
(-0.481037 -0.285183 0)
(-0.483796 -0.326966 0)
(-0.486632 -0.368648 0)
(-0.490196 -0.410703 0)
(-0.495655 -0.454271 0)
(-0.504587 -0.50127 0)
(-0.518301 -0.553894 0)
(-0.536327 -0.612986 0)
(-0.554412 -0.675207 0)
(-0.563292 -0.730132 0)
(-0.549993 -0.759627 0)
(-0.502483 -0.741834 0)
(-0.416449 -0.660206 0)
(-0.301003 -0.514974 0)
(-0.179288 -0.331185 0)
(-0.0805062 -0.154849 0)
(-0.0231574 -0.0304684 0)
(-0.00128306 0.0280134 0)
(0.0013712 0.0284788 0)
(-0.00539464 0.126127 0)
(-0.0430395 0.250048 0)
(-0.0893451 0.339043 0)
(-0.139273 0.424635 0)
(-0.189839 0.505469 0)
(-0.238205 0.573637 0)
(-0.281323 0.622561 0)
(-0.316836 0.648725 0)
(-0.343515 0.652032 0)
(-0.361456 0.635362 0)
(-0.371967 0.603601 0)
(-0.377179 0.562356 0)
(-0.379446 0.516699 0)
(-0.380767 0.470285 0)
(-0.382425 0.425078 0)
(-0.384953 0.381635 0)
(-0.388335 0.339676 0)
(-0.392286 0.298624 0)
(-0.396486 0.257958 0)
(-0.400695 0.217336 0)
(-0.404789 0.176593 0)
(-0.40874 0.135678 0)
(-0.412571 0.0945897 0)
(-0.416312 0.0533363 0)
(-0.419988 0.0119218 0)
(-0.42367 -0.0296539 0)
(-0.427411 -0.0713907 0)
(-0.431193 -0.113305 0)
(-0.434994 -0.155391 0)
(-0.438772 -0.197625 0)
(-0.442445 -0.239945 0)
(-0.445898 -0.282243 0)
(-0.449007 -0.324365 0)
(-0.451715 -0.366166 0)
(-0.454193 -0.407667 0)
(-0.457079 -0.449371 0)
(-0.461717 -0.492667 0)
(-0.470078 -0.540054 0)
(-0.483891 -0.594475 0)
(-0.502637 -0.65696 0)
(-0.520936 -0.722555 0)
(-0.527282 -0.776617 0)
(-0.506538 -0.795126 0)
(-0.446741 -0.75195 0)
(-0.347621 -0.632442 0)
(-0.22592 -0.448112 0)
(-0.112315 -0.242534 0)
(-0.0363978 -0.0761176 0)
(-0.0042262 0.0132125 0)
(0.00146067 0.0280965 0)
(-0.00454054 0.149768 0)
(-0.0403565 0.291421 0)
(-0.0845808 0.38604 0)
(-0.13147 0.473132 0)
(-0.177898 0.552628 0)
(-0.221157 0.616597 0)
(-0.258576 0.658868 0)
(-0.288322 0.676874 0)
(-0.309738 0.671747 0)
(-0.323442 0.64759 0)
(-0.331104 0.610203 0)
(-0.334946 0.565572 0)
(-0.337111 0.518565 0)
(-0.339167 0.472214 0)
(-0.341908 0.427742 0)
(-0.34547 0.385114 0)
(-0.34962 0.343727 0)
(-0.354023 0.302929 0)
(-0.358413 0.262265 0)
(-0.36265 0.221513 0)
(-0.3667 0.180606 0)
(-0.370598 0.139552 0)
(-0.374406 0.0983748 0)
(-0.378166 0.0570874 0)
(-0.381902 0.015684 0)
(-0.385685 -0.0258489 0)
(-0.389571 -0.0675236 0)
(-0.393552 -0.109374 0)
(-0.397614 -0.151417 0)
(-0.401734 -0.193661 0)
(-0.405856 -0.236089 0)
(-0.409879 -0.278642 0)
(-0.413648 -0.32119 0)
(-0.416972 -0.363531 0)
(-0.419703 -0.405441 0)
(-0.421937 -0.446874 0)
(-0.424342 -0.488392 0)
(-0.428488 -0.531772 0)
(-0.43678 -0.580314 0)
(-0.451279 -0.637789 0)
(-0.470957 -0.704841 0)
(-0.488411 -0.77327 0)
(-0.489115 -0.82186 0)
(-0.456179 -0.819267 0)
(-0.38 -0.736873 0)
(-0.267902 -0.568354 0)
(-0.1469 -0.345947 0)
(-0.0533897 -0.137536 0)
(-0.0082237 -0.00882569 0)
(0.00147396 0.026178 0)
(-0.00331276 0.171121 0)
(-0.0359681 0.330195 0)
(-0.0770083 0.429921 0)
(-0.119973 0.517616 0)
(-0.161688 0.594918 0)
(-0.199672 0.654138 0)
(-0.231673 0.689669 0)
(-0.256352 0.699951 0)
(-0.273528 0.687311 0)
(-0.284183 0.656936 0)
(-0.290144 0.615303 0)
(-0.293519 0.568506 0)
(-0.296108 0.520991 0)
(-0.299023 0.475088 0)
(-0.302656 0.431348 0)
(-0.306895 0.389301 0)
(-0.311425 0.348185 0)
(-0.315956 0.307386 0)
(-0.320317 0.266567 0)
(-0.324461 0.225617 0)
(-0.32842 0.184541 0)
(-0.332261 0.143377 0)
(-0.336057 0.102154 0)
(-0.339849 0.0608737 0)
(-0.343651 0.0195181 0)
(-0.347521 -0.0219394 0)
(-0.351521 -0.0635181 0)
(-0.355648 -0.105264 0)
(-0.359887 -0.147208 0)
(-0.364232 -0.189378 0)
(-0.368654 -0.231794 0)
(-0.373094 -0.274447 0)
(-0.377433 -0.317276 0)
(-0.381486 -0.360131 0)
(-0.385 -0.402752 0)
(-0.387752 -0.444824 0)
(-0.389793 -0.486248 0)
(-0.391875 -0.527755 0)
(-0.395911 -0.571751 0)
(-0.404816 -0.622643 0)
(-0.420744 -0.684946 0)
(-0.441295 -0.757656 0)
(-0.455786 -0.826507 0)
(-0.446199 -0.860678 0)
(-0.395585 -0.821342 0)
(-0.300684 -0.683064 0)
(-0.180716 -0.459417 0)
(-0.0735849 -0.215077 0)
(-0.0135219 -0.0398857 0)
(0.00138944 0.0222428 0)
(-0.00180026 0.189205 0)
(-0.0301457 0.365255 0)
(-0.0671013 0.469801 0)
(-0.105491 0.55749 0)
(-0.142166 0.632098 0)
(-0.17492 0.686428 0)
(-0.201927 0.715526 0)
(-0.222278 0.718829 0)
(-0.236148 0.699766 0)
(-0.244715 0.664424 0)
(-0.249778 0.619725 0)
(-0.253196 0.571653 0)
(-0.256372 0.52411 0)
(-0.26002 0.478747 0)
(-0.26425 0.435571 0)
(-0.268829 0.393839 0)
(-0.273458 0.352755 0)
(-0.277932 0.311801 0)
(-0.282172 0.270762 0)
(-0.2862 0.229616 0)
(-0.290081 0.188406 0)
(-0.293892 0.147179 0)
(-0.297701 0.105951 0)
(-0.301544 0.064712 0)
(-0.305421 0.0234297 0)
(-0.309376 -0.0179323 0)
(-0.313482 -0.0593977 0)
(-0.317737 -0.101022 0)
(-0.322117 -0.142841 0)
(-0.326625 -0.184897 0)
(-0.331249 -0.227226 0)
(-0.335959 -0.269857 0)
(-0.340686 -0.31279 0)
(-0.345303 -0.355959 0)
(-0.34959 -0.399183 0)
(-0.353239 -0.442121 0)
(-0.355962 -0.48436 0)
(-0.357811 -0.525798 0)
(-0.35975 -0.567535 0)
(-0.3642 -0.613022 0)
(-0.374608 -0.66814 0)
(-0.392655 -0.73756 0)
(-0.413147 -0.815945 0)
(-0.420718 -0.878599 0)
(-0.394492 -0.882401 0)
(-0.321377 -0.78474 0)
(-0.210198 -0.575884 0)
(-0.0953861 -0.306703 0)
(-0.0203446 -0.0816424 0)
(0.00124938 0.0158074 0)
(-0.000107233 0.203246 0)
(-0.0231958 0.395678 0)
(-0.0553577 0.505008 0)
(-0.0887247 0.592378 0)
(-0.120217 0.664124 0)
(-0.14792 0.713765 0)
(-0.170406 0.737034 0)
(-0.187121 0.734303 0)
(-0.198459 0.709957 0)
(-0.205643 0.670787 0)
(-0.210306 0.623955 0)
(-0.213981 0.575192 0)
(-0.217694 0.527833 0)
(-0.221848 0.482936 0)
(-0.226386 0.440111 0)
(-0.231052 0.398471 0)
(-0.23561 0.357264 0)
(-0.239941 0.316088 0)
(-0.244039 0.274831 0)
(-0.247962 0.233525 0)
(-0.251787 0.19223 0)
(-0.255586 0.150981 0)
(-0.259419 0.109783 0)
(-0.263317 0.0686125 0)
(-0.267271 0.0274244 0)
(-0.271309 -0.013826 0)
(-0.275517 -0.0551635 0)
(-0.279901 -0.0966534 0)
(-0.28442 -0.138337 0)
(-0.289081 -0.180259 0)
(-0.293875 -0.222469 0)
(-0.298787 -0.265012 0)
(-0.303783 -0.307927 0)
(-0.308789 -0.351219 0)
(-0.313658 -0.394807 0)
(-0.318131 -0.438454 0)
(-0.321843 -0.481714 0)
(-0.324465 -0.524068 0)
(-0.326137 -0.565533 0)
(-0.328219 -0.60797 0)
(-0.333855 -0.65652 0)
(-0.346857 -0.718717 0)
(-0.367217 -0.79748 0)
(-0.384857 -0.878127 0)
(-0.378979 -0.920047 0)
(-0.329044 -0.868274 0)
(-0.232595 -0.68834 0)
(-0.116638 -0.408424 0)
(-0.0286921 -0.135244 0)
(0.00111615 0.00636055 0)
(0.00165665 0.212685 0)
(-0.015435 0.420732 0)
(-0.0422597 0.535051 0)
(-0.0703184 0.622072 0)
(-0.0966133 0.691073 0)
(-0.119505 0.736498 0)
(-0.137929 0.754756 0)
(-0.151591 0.747036 0)
(-0.160991 0.718512 0)
(-0.167263 0.67649 0)
(-0.171788 0.628221 0)
(-0.17575 0.579111 0)
(-0.179847 0.531976 0)
(-0.18427 0.487401 0)
(-0.188885 0.444731 0)
(-0.193469 0.40303 0)
(-0.197862 0.361626 0)
(-0.202018 0.320222 0)
(-0.205974 0.27878 0)
(-0.209804 0.237361 0)
(-0.213583 0.196024 0)
(-0.21737 0.154791 0)
(-0.22122 0.113651 0)
(-0.225163 0.0725707 0)
(-0.229185 0.0314976 0)
(-0.233295 -0.00962165 0)
(-0.237602 -0.0508122 0)
(-0.242121 -0.0921517 0)
(-0.246791 -0.133685 0)
(-0.251618 -0.175462 0)
(-0.256593 -0.217535 0)
(-0.261706 -0.259959 0)
(-0.266935 -0.302792 0)
(-0.272242 -0.346082 0)
(-0.277537 -0.389831 0)
(-0.282647 -0.433923 0)
(-0.287263 -0.478027 0)
(-0.290961 -0.52155 0)
(-0.293414 -0.563908 0)
(-0.295001 -0.605516 0)
(-0.297764 -0.649701 0)
(-0.305743 -0.704105 0)
(-0.322389 -0.77721 0)
(-0.343727 -0.8655 0)
(-0.352596 -0.937007 0)
(-0.324492 -0.931274 0)
(-0.246389 -0.79092 0)
(-0.135291 -0.515196 0)
(-0.0381746 -0.200462 0)
(0.000967548 -0.00656653 0)
(0.00338548 0.217211 0)
(-0.0071721 0.439832 0)
(-0.0282557 0.559585 0)
(-0.0508346 0.646484 0)
(-0.071993 0.71309 0)
(-0.090326 0.754972 0)
(-0.105083 0.769168 0)
(-0.116151 0.757536 0)
(-0.124029 0.725861 0)
(-0.129673 0.681798 0)
(-0.134158 0.632584 0)
(-0.138334 0.583305 0)
(-0.142638 0.536341 0)
(-0.147125 0.491932 0)
(-0.15165 0.449268 0)
(-0.156047 0.407421 0)
(-0.160226 0.3658 0)
(-0.164193 0.324194 0)
(-0.168007 0.282612 0)
(-0.171743 0.241126 0)
(-0.175466 0.199786 0)
(-0.179228 0.158597 0)
(-0.183076 0.117538 0)
(-0.187046 0.0765707 0)
(-0.191122 0.0356372 0)
(-0.195289 -0.00532452 0)
(-0.199685 -0.0463423 0)
(-0.204344 -0.0875063 0)
(-0.20918 -0.128868 0)
(-0.214194 -0.170482 0)
(-0.219378 -0.212402 0)
(-0.224717 -0.254686 0)
(-0.230199 -0.297403 0)
(-0.235795 -0.340623 0)
(-0.241456 -0.3844 0)
(-0.247069 -0.428716 0)
(-0.252419 -0.473384 0)
(-0.257135 -0.51792 0)
(-0.260743 -0.56156 0)
(-0.26301 -0.603794 0)
(-0.264816 -0.646043 0)
(-0.26925 -0.694253 0)
(-0.281095 -0.759103 0)
(-0.301535 -0.846673 0)
(-0.319302 -0.937674 0)
(-0.309751 -0.973814 0)
(-0.251332 -0.879505 0)
(-0.149863 -0.621889 0)
(-0.0480621 -0.275539 0)
(0.000663512 -0.023418 0)
(0.00493778 0.216638 0)
(0.00128775 0.452635 0)
(-0.013745 0.578354 0)
(-0.0307542 0.665601 0)
(-0.0468694 0.730342 0)
(-0.0608697 0.769487 0)
(-0.0722696 0.78064 0)
(-0.0810685 0.766164 0)
(-0.087689 0.73227 0)
(-0.0928473 0.686829 0)
(-0.0972941 0.637013 0)
(-0.101574 0.587633 0)
(-0.105919 0.540747 0)
(-0.110313 0.49637 0)
(-0.114632 0.453614 0)
(-0.118775 0.411583 0)
(-0.122711 0.369762 0)
(-0.126475 0.327996 0)
(-0.130136 0.286321 0)
(-0.133762 0.244809 0)
(-0.137411 0.203497 0)
(-0.141124 0.162379 0)
(-0.144947 0.121424 0)
(-0.148922 0.080592 0)
(-0.153035 0.039828 0)
(-0.157242 -0.000938976 0)
(-0.161712 -0.0417542 0)
(-0.166514 -0.0827073 0)
(-0.171526 -0.123868 0)
(-0.176748 -0.165291 0)
(-0.182168 -0.207034 0)
(-0.187771 -0.249157 0)
(-0.193543 -0.29173 0)
(-0.199463 -0.334837 0)
(-0.205497 -0.378562 0)
(-0.211572 -0.422955 0)
(-0.217543 -0.467946 0)
(-0.223132 -0.51321 0)
(-0.2279 -0.558049 0)
(-0.231365 -0.601551 0)
(-0.233579 -0.643709 0)
(-0.236329 -0.688134 0)
(-0.244057 -0.744887 0)
(-0.261138 -0.826327 0)
(-0.282743 -0.927003 0)
(-0.287472 -0.997823 0)
(-0.248193 -0.951848 0)
(-0.159616 -0.724007 0)
(-0.0575219 -0.357713 0)
(-5.25155e-06 -0.044619 0)
(0.00615878 0.211195 0)
(0.00958156 0.458702 0)
(0.000947969 0.591267 0)
(-0.0104769 0.679432 0)
(-0.0216487 0.74298 0)
(-0.031492 0.780273 0)
(-0.0397487 0.789429 0)
(-0.0464801 0.773143 0)
(-0.0519833 0.737878 0)
(-0.0567018 0.69161 0)
(-0.0610605 0.641432 0)
(-0.0653286 0.591962 0)
(-0.0695819 0.545054 0)
(-0.0737676 0.500602 0)
(-0.0778031 0.457694 0)
(-0.0816457 0.415478 0)
(-0.0853105 0.37349 0)
(-0.0888518 0.331612 0)
(-0.0923371 0.289889 0)
(-0.0958281 0.248386 0)
(-0.0993742 0.207132 0)
(-0.103014 0.16611 0)