/*--------------------------------*- C++ -*----------------------------------*\
  =========                 |
  \\      /  F ield         | OpenFOAM: The Open Source CFD Toolbox
   \\    /   O peration     | Website:  https://openfoam.org
    \\  /    A nd           | Version:  7
     \\/     M anipulation  |
\*---------------------------------------------------------------------------*/
FoamFile
{
    version     2.0;
    format      ascii;
    class       volScalarField;
    location    "950";
    object      p;
}
// * * * * * * * * * * * * * * * * * * * * * * * * * * * * * * * * * * * * * //

dimensions      [0 2 -2 0 0 0 0];

internalField   nonuniform List<scalar> 
2500
(
4.86718e-07
7.17885e-05
-8.08327e-06
-0.000306939
-0.000781401
-0.00136902
-0.00202962
-0.00275868
-0.00358191
-0.00453997
-0.00567294
-0.00701071
-0.00857017
-0.0103511
-0.0123299
-0.0144526
-0.0166269
-0.0187212
-0.0205705
-0.0219926
-0.0228127
-0.0228914
-0.0221533
-0.0206147
-0.0184016
-0.01574
-0.0129516
-0.0104537
-0.00870818
-0.00815304
-0.00912137
-0.0117503
-0.0159275
-0.0213577
-0.0275813
-0.034037
-0.0401958
-0.0456568
-0.0501887
-0.0537164
-0.0562898
-0.0580438
-0.0591529
-0.059793
-0.0601161
-0.0602382
-0.0602374
-0.0601561
-0.0600168
-0.0598777
-6.83255e-05
4.55417e-06
-7.92573e-05
-0.000375761
-0.000828214
-0.00137245
-0.00197335
-0.00263236
-0.00337808
-0.00425083
-0.00528945
-0.00652388
-0.00797482
-0.00965
-0.0115378
-0.0136014
-0.0157698
-0.0179316
-0.0199338
-0.0215926
-0.0227156
-0.0231329
-0.0227304
-0.0214841
-0.0194888
-0.0169614
-0.0142392
-0.0117576
-0.00999723
-0.00941535
-0.0103607
-0.0129927
-0.0172274
-0.0227156
-0.0289552
-0.0353979
-0.0414893
-0.0467886
-0.0510562
-0.0542651
-0.0565329
-0.0580412
-0.0589834
-0.0595322
-0.0598239
-0.0599557
-0.0599897
-0.0599551
-0.0598536
-0.0597219
-1.82251e-05
5.04625e-05
-5.64858e-05
-0.000379009
-0.000831476
-0.00133812
-0.00186878
-0.00243626
-0.00308163
-0.00385246
-0.00479285
-0.00594318
-0.00734149
-0.00902223
-0.0110054
-0.0132798
-0.0157851
-0.0183996
-0.0209409
-0.0231823
-0.0248846
-0.0258338
-0.0258783
-0.0249669
-0.0231918
-0.0207806
-0.01807
-0.0154937
-0.0135446
-0.0127031
-0.0133514
-0.0156878
-0.0196676
-0.0249895
-0.0311445
-0.0375114
-0.0435123
-0.0487048
-0.0528082
-0.0557569
-0.0576808
-0.0588254
-0.0594444
-0.0597424
-0.059864
-0.0598989
-0.0598938
-0.0598582
-0.0597624
-0.0596181
0.000229077
0.000267104
0.000102607
-0.000278755
-0.000754601
-0.00123597
-0.00170192
-0.00218458
-0.00274501
-0.00345429
-0.00438582
-0.00561911
-0.007239
-0.00932252
-0.0119125
-0.0149888
-0.0184483
-0.0221026
-0.0256956
-0.0289366
-0.0315413
-0.0332702
-0.0339581
-0.0335416
-0.0320925
-0.0298135
-0.0270169
-0.0241235
-0.0216287
-0.0200392
-0.0197926
-0.0211688
-0.0242171
-0.0287247
-0.0342413
-0.0401638
-0.0458699
-0.0508403
-0.0547794
-0.0575973
-0.0593451
-0.0602343
-0.0605461
-0.0605406
-0.0604022
-0.0602407
-0.0601066
-0.0600007
-0.0598707
-0.0597058
0.00070849
0.000678319
0.000419067
-4.31627e-05
-0.000554405
-0.00102834
-0.00145946
-0.00190779
-0.00247405
-0.00328021
-0.00446336
-0.00617135
-0.00854347
-0.0116753
-0.015581
-0.0201697
-0.025245
-0.0305259
-0.0356817
-0.0403715
-0.0442809
-0.0471522
-0.0488071
-0.0491613
-0.0482445
-0.0462021
-0.0432989
-0.0399204
-0.0365387
-0.0336691
-0.0318038
-0.0313311
-0.0324533
-0.0351273
-0.039053
-0.0437253
-0.0485441
-0.0529486
-0.0565385
-0.0591264
-0.0607458
-0.0615528
-0.0617388
-0.0615539
-0.0612172
-0.0608721
-0.0605922
-0.0603906
-0.0602143
-0.0600374
0.00146379
0.00132968
0.000950237
0.000398575
-0.000167621
-0.000674186
-0.00114583
-0.00169542
-0.00249226
-0.00374256
-0.00567201
-0.00849465
-0.0123661
-0.0173374
-0.0233284
-0.030131
-0.0374357
-0.0448709
-0.0520432
-0.0585728
-0.0641226
-0.0684216
-0.0712822
-0.0726059
-0.0723908
-0.0707206
-0.0677936
-0.0639307
-0.0595396
-0.0550955
-0.0511015
-0.0480289
-0.046244
-0.0459329
-0.0470499
-0.0493117
-0.0522557
-0.0553521
-0.0581338
-0.0602909
-0.0617026
-0.0624176
-0.0625998
-0.062412
-0.0620258
-0.0616002
-0.0612345
-0.0609661
-0.0607608
-0.0605894
0.00253342
0.00227053
0.00176168
0.00111012
0.000453138
-0.0001662
-0.000836075
-0.00175221
-0.00318411
-0.00544194
-0.00882761
-0.0135703
-0.0197668
-0.02735
-0.0360951
-0.0456537
-0.0556013
-0.0654848
-0.0748621
-0.0833335
-0.090564
-0.0962977
-0.100362
-0.102667
-0.103207
-0.102033
-0.0992713
-0.0951557
-0.0899886
-0.0841434
-0.0780519
-0.0721804
-0.0669868
-0.0628604
-0.0600536
-0.0586237
-0.0584122
-0.0590805
-0.0602012
-0.0613724
-0.0623058
-0.062862
-0.0630398
-0.062927
-0.0626275
-0.0622527
-0.0619022
-0.0616335
-0.0614378
-0.0612927
0.00392373
0.00352471
0.00288564
0.00211189
0.00129655
0.000411803
-0.000727696
-0.00243118
-0.00508375
-0.00907942
-0.0147337
-0.0222024
-0.0314385
-0.0421973
-0.0540795
-0.0665915
-0.0792065
-0.0914146
-0.102761
-0.112868
-0.12145
-0.128306
-0.133313
-0.136409
-0.137611
-0.136981
-0.134589
-0.130582
-0.125142
-0.118502
-0.110947
-0.10283
-0.0945612
-0.0865984
-0.079402
-0.0733725
-0.0687741
-0.0656707
-0.0639051
-0.0631449
-0.062986
-0.0630675
-0.0631446
-0.0631105
-0.0629614
-0.0627386
-0.0625049
-0.0623141
-0.062174
-0.0620733
0.00557992
0.0050517
0.00427741
0.00333895
0.00224067
0.000844255
-0.00116253
-0.00421569
-0.00879253
-0.0153012
-0.0239712
-0.0347875
-0.0474887
-0.0616166
-0.0765937
-0.0918032
-0.106657
-0.120644
-0.133356
-0.144493
-0.153861
-0.161348
-0.166896
-0.170487
-0.172165
-0.172028
-0.170119
-0.166517
-0.161308
-0.154592
-0.146496
-0.137191
-0.126923
-0.116039
-0.105003
-0.0943871
-0.0848097
-0.0768303
-0.0708106
-0.0668013
-0.0645245
-0.0634822
-0.0631408
-0.0630857
-0.0630864
-0.063067
-0.0630225
-0.0629757
-0.0629307
-0.0628857
0.00735149
0.00670827
0.0057876
0.00460246
0.003024
0.000773263
-0.00260185
-0.00764213
-0.014847
-0.0245332
-0.0367367
-0.0511911
-0.0673806
-0.0846342
-0.102231
-0.119491
-0.135841
-0.150842
-0.164193
-0.175712
-0.185314
-0.192978
-0.198712
-0.202532
-0.204502
-0.204746
-0.203301
-0.200209
-0.195503
-0.189201
-0.181314
-0.171856
-0.160875
-0.148501
-0.13501
-0.120879
-0.106817
-0.0937155
-0.0824972
-0.0738692
-0.0680816
-0.0648339
-0.0634249
-0.0630634
-0.0631387
-0.0633202
-0.0635004
-0.0636385
-0.0637136
-0.0637282
0.00898038
0.00824115
0.00713859
0.00557378
0.00324949
-0.000267322
-0.00555197
-0.0131865
-0.0235884
-0.0368699
-0.052785
-0.0707731
-0.0900687
-0.109836
-0.129289
-0.147778
-0.164828
-0.180135
-0.193538
-0.204979
-0.214466
-0.222044
-0.227762
-0.23166
-0.2338
-0.23431
-0.233224
-0.230573
-0.226373
-0.220618
-0.213268
-0.204256
-0.193496
-0.180921
-0.166546
-0.150571
-0.133488
-0.116164
-0.0998108
-0.0857637
-0.0750944
-0.0681968
-0.0646273
-0.0633585
-0.063286
-0.0636291
-0.0640279
-0.0643636
-0.0645686
-0.0646435
0.0101131
0.00928271
0.00793114
0.00580936
0.00243264
-0.00277532
-0.0104622
-0.0211567
-0.0350815
-0.0520513
-0.0714908
-0.0925512
-0.114274
-0.135751
-0.156236
-0.1752
-0.192328
-0.207476
-0.220615
-0.231781
-0.241041
-0.24847
-0.25413
-0.258063
-0.26032
-0.261014
-0.260167
-0.257814
-0.253973
-0.248644
-0.241793
-0.233342
-0.223165
-0.211095
-0.196965
-0.180683
-0.162372
-0.142546
-0.122257
-0.103082
-0.0868165
-0.0748763
-0.0676788
-0.0644605
-0.0637442
-0.0641103
-0.0647058
-0.0652337
-0.0655708
-0.065709
0.0103208
0.00938509
0.00769338
0.00481581
8.45966e-05
-0.00718288
-0.0176293
-0.0316251
-0.0491034
-0.0695278
-0.0919971
-0.115433
-0.138783
-0.161176
-0.182001
-0.20091
-0.217764
-0.23256
-0.245364
-0.256263
-0.265342
-0.272677
-0.278323
-0.282312
-0.284675
-0.285505
-0.284813
-0.282631
-0.278986
-0.273891
-0.267337
-0.259276
-0.249609
-0.238172
-0.224739
-0.209055
-0.190928
-0.17041
-0.148053
-0.125142
-0.10369
-0.0859902
-0.0737201
-0.0671052
-0.0648283
-0.0648729
-0.0656174
-0.0663295
-0.0668069
-0.0670203
0.00915898
0.00809251
0.00595892
0.00213837
-0.0041935
-0.0137684
-0.0271357
-0.0444162
-0.0651941
-0.0885772
-0.113392
-0.138427
-0.162647
-0.185318
-0.206022
-0.224601
-0.241068
-0.255515
-0.268054
-0.278785
-0.287785
-0.295111
-0.300803
-0.304878
-0.307349
-0.308294
-0.30771
-0.305628
-0.302074
-0.29707
-0.290625
-0.282728
-0.273332
-0.262329
-0.249534
-0.234675
-0.217419
-0.197477
-0.174843
-0.150146
-0.124989
-0.10193
-0.0837646
-0.0722432
-0.0670571
-0.0660825
-0.0668135
-0.0677179
-0.06836
-0.0686738
0.00625119
0.00502157
0.00235391
-0.00255128
-0.0106317
-0.0226017
-0.0388365
-0.0591448
-0.0827465
-0.108435
-0.134852
-0.160765
-0.185254
-0.207779
-0.228125
-0.246298
-0.262411
-0.2766
-0.288987
-0.299656
-0.30866
-0.316038
-0.321811
-0.325984
-0.328561
-0.329606
-0.329114
-0.327105
-0.323603
-0.318627
-0.312196
-0.304319
-0.294988
-0.28416
-0.271734
-0.257513
-0.241183
-0.222333
-0.200579
-0.175876
-0.149012
-0.12206
-0.0982469
-0.0808008
-0.0711708
-0.06805
-0.0683667
-0.0694602
-0.070303
-0.0707596
0.00135856
-6.4836e-05
-0.0033302
-0.00939152
-0.019248
-0.0335328
-0.0523877
-0.075284
-0.101103
-0.128399
-0.155731
-0.181939
-0.206286
-0.228438
-0.248357
-0.266159
-0.282008
-0.296044
-0.308369
-0.319041
-0.328091
-0.335538
-0.341395
-0.34566
-0.348328
-0.349459
-0.34905
-0.347112
-0.343662
-0.338713
-0.332283
-0.324384
-0.315026
-0.304211
-0.291906
-0.278019
-0.262345
-0.244526
-0.224059
-0.200464
-0.173702
-0.14487
-0.116737
-0.093315
-0.0779971
-0.0712999
-0.0704417
-0.0716218
-0.0727127
-0.0733683
-0.00557164
-0.00720989
-0.011096
-0.0183054
-0.0298459
-0.0462199
-0.0673042
-0.0922435
-0.119638
-0.14789
-0.17557
-0.201663
-0.22563
-0.247326
-0.266841
-0.284349
-0.300021
-0.313978
-0.32629
-0.336988
-0.346086
-0.353592
-0.359515
-0.363849
-0.366591
-0.367793
-0.367458
-0.365591
-0.362202
-0.357302
-0.350899
-0.343002
-0.333623
-0.322776
-0.31047
-0.296691
-0.281355
-0.264244
-0.244937
-0.22282
-0.197313
-0.168487
-0.138007
-0.109642
-0.0881692
-0.076508
-0.0733572
-0.0743051
-0.075703
-0.0766064
-0.0143915
-0.0162515
-0.0207382
-0.0290141
-0.0420486
-0.060183
-0.0830269
-0.109437
-0.137805
-0.166469
-0.194082
-0.219802
-0.243283
-0.264525
-0.283694
-0.300982
-0.316538
-0.330452
-0.342762
-0.35348
-0.362607
-0.370149
-0.376112
-0.380495
-0.38329
-0.384547
-0.384277
-0.382477
-0.379156
-0.37432
-0.367975
-0.360123
-0.350769
-0.339924
-0.327608
-0.313845
-0.298638
-0.281908
-0.263408
-0.24262
-0.218784
-0.19125
-0.160411
-0.128919
-0.101846
-0.0843184
-0.0775726
-0.0776707
-0.0793975
-0.0805858
-0.0247731
-0.026846
-0.0318757
-0.0410805
-0.0553544
-0.0748677
-0.0989847
-0.12633
-0.155162
-0.183825
-0.211095
-0.236311
-0.259284
-0.280112
-0.298996
-0.316115
-0.331586
-0.345464
-0.357763
-0.368481
-0.377615
-0.385169
-0.391152
-0.395564
-0.398399
-0.399697
-0.399481
-0.39774
-0.394485
-0.38972
-0.383449
-0.375671
-0.366388
-0.355601
-0.343326
-0.329591
-0.314437
-0.297885
-0.279852
-0.260028
-0.237747
-0.212062
-0.182367
-0.149796
-0.118579
-0.0951077
-0.0835938
-0.0819491
-0.0839019
-0.0854194
-0.0362548
-0.0385169
-0.0440051
-0.0539682
-0.0691985
-0.0897037
-0.114641
-0.142464
-0.171365
-0.199743
-0.226516
-0.251181
-0.273668
-0.294134
-0.312781
-0.329761
-0.345156
-0.358989
-0.37126
-0.381959
-0.391081
-0.39863
-0.404618
-0.409048
-0.411911
-0.41324
-0.413067
-0.411378
-0.408182
-0.403485
-0.397291
-0.389601
-0.380413
-0.369727
-0.357548
-0.343898
-0.328818
-0.312372
-0.294595
-0.275378
-0.254291
-0.230443
-0.202702
-0.170814
-0.137403
-0.108819
-0.0918484
-0.0874333
-0.0893067
-0.0912265
-0.0483009
-0.0507158
-0.0565632
-0.0671033
-0.0830104
-0.104151
-0.129521
-0.157463
-0.186155
-0.214079
-0.240289
-0.264409
-0.286455
-0.306606
-0.32505
-0.341906
-0.357221
-0.370998
-0.383226
-0.393891
-0.402989
-0.410525
-0.416509
-0.420948
-0.423832
-0.425183
-0.425046
-0.4234
-0.420255
-0.415618
-0.409496
-0.401891
-0.392806
-0.38224
-0.370195
-0.356682
-0.341732
-0.325411
-0.307808
-0.288961
-0.268691
-0.246363
-0.220769
-0.190731
-0.157072
-0.124926
-0.102534
-0.0944031
-0.0957042
-0.0981194
-0.0603613
-0.0628821
-0.0689848
-0.0799275
-0.0962578
-0.117731
-0.143228
-0.171032
-0.199341
-0.22673
-0.252371
-0.275987
-0.297641
-0.317519
-0.335783
-0.35252
-0.36775
-0.381463
-0.393638
-0.404262
-0.413331
-0.420849
-0.426827
-0.43127
-0.434169
-0.435536
-0.435429
-0.433816
-0.430713
-0.426127
-0.420067
-0.41254
-0.403552
-0.393106
-0.381207
-0.367861
-0.353089
-0.336944
-0.319522
-0.300939
-0.281212
-0.26001
-0.236356
-0.208698
-0.176354
-0.142528
-0.115504
-0.10305
-0.103203
-0.106155
-0.0719217
-0.0744973
-0.0807501
-0.0919384
-0.108476
-0.13004
-0.155441
-0.18294
-0.210778
-0.237618
-0.262726
-0.285892
-0.307207
-0.326847
-0.344948
-0.36157
-0.376715
-0.390359
-0.402479
-0.413062
-0.422103
-0.429603
-0.435573
-0.440019
-0.44293
-0.444306
-0.444222
-0.442637
-0.439567
-0.435021
-0.429011
-0.421549
-0.412644
-0.402307
-0.390547
-0.377374
-0.362804
-0.346877
-0.329678
-0.311343
-0.292008
-0.271608
-0.249519
-0.224266
-0.194227
-0.160535
-0.130242
-0.113387
-0.111859
-0.115272
-0.0825632
-0.0850997
-0.091419
-0.102714
-0.119284
-0.140757
-0.165911
-0.193014
-0.220358
-0.246679
-0.271313
-0.294093
-0.31512
-0.334554
-0.352509
-0.369024
-0.384086
-0.397665
-0.409735
-0.420282
-0.4293
-0.436787
-0.44275
-0.447197
-0.450119
-0.451501
-0.451435
-0.449869
-0.446822
-0.442305
-0.436332
-0.428917
-0.420078
-0.409831
-0.398192
-0.385179
-0.370809
-0.355118
-0.338176
-0.320113
-0.301116
-0.281304
-0.260406
-0.237286
-0.209975
-0.177859
-0.14594
-0.12517
-0.121575
-0.125231
-0.0919688
-0.0943123
-0.100631
-0.111927
-0.12839
-0.149641
-0.174454
-0.201126
-0.227998
-0.25386
-0.278094
-0.300555
-0.321342
-0.340602
-0.35843
-0.374849
-0.389838
-0.403362
-0.415393
-0.425914
-0.434917
-0.442398
-0.44836
-0.45281
-0.45574
-0.457129
-0.457073
-0.455521
-0.452487
-0.447985
-0.442032
-0.434646
-0.42585
-0.415667
-0.404124
-0.391243
-0.377053
-0.361589
-0.344915
-0.327147
-0.308483
-0.289145
-0.269143
-0.247769
-0.223174
-0.193568
-0.161628
-0.137873
-0.132007
-0.135609
-0.0998899
-0.101905
-0.108116
-0.119335
-0.135589
-0.156522
-0.180943
-0.207187
-0.233636
-0.259116
-0.28303
-0.305239
-0.325836
-0.344954
-0.362676
-0.379017
-0.393948
-0.407433
-0.41944
-0.429949
-0.43895
-0.446436
-0.452405
-0.456862
-0.459801
-0.461201
-0.461151
-0.459606
-0.456574
-0.452073
-0.446121
-0.438741
-0.429961
-0.419812
-0.408328
-0.395543
-0.381496
-0.366228
-0.349804
-0.332333
-0.314005
-0.295089
-0.275782
-0.255778
-0.233619
-0.206957
-0.176324
-0.150745
-0.142613
-0.145868
-0.10616
-0.107759
-0.113719
-0.124786
-0.140763
-0.161318
-0.185321
-0.211156
-0.23724
-0.262416
-0.28609
-0.308112
-0.328564
-0.347573
-0.365215
-0.381498
-0.396393
-0.409859
-0.421862
-0.432378
-0.441394
-0.448898
-0.454885
-0.459357
-0.462308
-0.46372
-0.463672
-0.462132
-0.459092
-0.454578
-0.448609
-0.44121
-0.432415
-0.422262
-0.410796
-0.398062
-0.384108
-0.368987
-0.35277
-0.335567
-0.317563
-0.299036
-0.280298
-0.261355
-0.241234
-0.217551
-0.189159
-0.16294
-0.152757
-0.155436
-0.110713
-0.111838
-0.117399
-0.128219
-0.143859
-0.163984
-0.187544
-0.212987
-0.238763
-0.263718
-0.287237
-0.309148
-0.329515
-0.348456
-0.366046
-0.382297
-0.397178
-0.410649
-0.42267
-0.433214
-0.442261
-0.449797
-0.455812
-0.460301
-0.46326
-0.464677
-0.464625
-0.463089
-0.460033
-0.455491
-0.449486
-0.442044
-0.433203
-0.42301
-0.411518
-0.398784
-0.384865
-0.369828
-0.353755
-0.336764
-0.319039
-0.300866
-0.282608
-0.264492
-0.246005
-0.22507
-0.199444
-0.173643
-0.161808
-0.163773
-0.113576
-0.114196
-0.119222
-0.129683
-0.14492
-0.16456
-0.18764
-0.212685
-0.238183
-0.262972
-0.286402
-0.308265
-0.3286
-0.347518
-0.365095
-0.381348
-0.396249
-0.409757
-0.42183
-0.432435
-0.441548
-0.449148
-0.455222
-0.45976
-0.462756
-0.464195
-0.464119
-0.462552
-0.459447
-0.454839
-0.448756
-0.441231
-0.432308
-0.422036
-0.410473
-0.397683
-0.383737
-0.368714
-0.352711
-0.335854
-0.318338
-0.300455
-0.282601
-0.265135
-0.247922
-0.229366
-0.206685
-0.182141
-0.169195
-0.170397
-0.114857
-0.114974
-0.119344
-0.129306
-0.144054
-0.163139
-0.185683
-0.210302
-0.235525
-0.260181
-0.283574
-0.305446
-0.325802
-0.34474
-0.362341
-0.378627
-0.39358
-0.407156
-0.419311
-0.430006
-0.439211
-0.4469
-0.453054
-0.457658
-0.460706
-0.462183
-0.462109
-0.460523
-0.457367
-0.452683
-0.446503
-0.43886
-0.429799
-0.419379
-0.407668
-0.394745
-0.380695
-0.365607
-0.349586
-0.332773
-0.315375
-0.297698
-0.28016
-0.263203
-0.246968
-0.230371
-0.210561
-0.187863
-0.17442
-0.174892
-0.114732
-0.114383
-0.118
-0.127291
-0.141428
-0.159862
-0.181784
-0.205912
-0.230831
-0.255359
-0.278747
-0.300673
-0.321099
-0.340105
-0.35777
-0.374129
-0.389167
-0.402847
-0.415119
-0.42594
-0.43527
-0.443079
-0.449341
-0.454036
-0.45715
-0.458674
-0.458607
-0.457
-0.453786
-0.449009
-0.442708
-0.434916
-0.425684
-0.415074
-0.403162
-0.390032
-0.375779
-0.360509
-0.344349
-0.327464
-0.310077
-0.292501
-0.275176
-0.2586
-0.243103
-0.228058
-0.21088
-0.19038
-0.177058
-0.17689
-0.113431
-0.112686
-0.115489
-0.123913
-0.137269
-0.15492
-0.176095
-0.19962
-0.224156
-0.248518
-0.271902
-0.293912
-0.314454
-0.333576
-0.351353
-0.367828
-0.382995
-0.396819
-0.409251
-0.420238
-0.429735
-0.437701
-0.444104
-0.448918
-0.452121
-0.453702
-0.453649
-0.452021
-0.448744
-0.44386
-0.437412
-0.429438
-0.419989
-0.409134
-0.396954
-0.383541
-0.369
-0.353451
-0.337035
-0.319935
-0.302404
-0.284792
-0.267562
-0.251237
-0.23628
-0.222418
-0.207544
-0.189381
-0.17674
-0.176069
-0.111217
-0.110175
-0.112148
-0.11951
-0.131869
-0.148555
-0.168811
-0.191569
-0.215582
-0.239686
-0.263026
-0.285125
-0.305815
-0.325102
-0.343045
-0.359688
-0.375035
-0.389053
-0.401692
-0.412894
-0.422603
-0.43077
-0.437354
-0.442319
-0.44564
-0.447297
-0.447276
-0.445626
-0.442285
-0.437281
-0.430664
-0.422475
-0.412765
-0.401608
-0.38909
-0.37531
-0.360383
-0.344439
-0.32764
-0.31019
-0.292371
-0.274563
-0.257273
-0.241055
-0.226458
-0.213454
-0.200514
-0.184661
-0.173143
-0.172131
-0.108368
-0.107144
-0.108324
-0.114456
-0.125569
-0.141056
-0.160171
-0.181939
-0.205226
-0.228915
-0.252116
-0.274272
-0.295127
-0.314624
-0.332793
-0.349669
-0.365257
-0.37953
-0.392433
-0.403905
-0.41388
-0.422298
-0.429108
-0.434266
-0.437738
-0.4395
-0.439531
-0.437866
-0.434463
-0.429334
-0.422528
-0.414091
-0.404078
-0.392562
-0.379634
-0.365399
-0.349979
-0.333519
-0.316197
-0.298245
-0.279977
-0.261815
-0.244306
-0.228047
-0.21363
-0.201186
-0.189799
-0.1761
-0.165981
-0.164794
-0.105153
-0.103859
-0.104336
-0.109134
-0.118748
-0.132756
-0.150451
-0.17095
-0.193239
-0.216283
-0.239187
-0.261317
-0.282325
-0.302071
-0.320531
-0.337716
-0.353624
-0.368226
-0.381466
-0.393276
-0.40358
-0.412309
-0.4194
-0.4248
-0.428465
-0.430363
-0.430472
-0.428809
-0.42535
-0.420092
-0.413082
-0.40437
-0.394011
-0.382079
-0.368668
-0.353886
-0.337865
-0.320761
-0.302772
-0.284158
-0.265272
-0.246581
-0.228687
-0.212233
-0.197856
-0.185687
-0.175457
-0.163656
-0.155007
-0.153785
-0.101806
-0.100539
-0.100446
-0.103899
-0.111801
-0.124021
-0.139965
-0.158853
-0.179806
-0.2019
-0.224271
-0.246234
-0.267342
-0.287355
-0.306172
-0.323757
-0.340084
-0.355112
-0.36878
-0.381012
-0.391724
-0.400836
-0.408273
-0.413971
-0.417879
-0.419956
-0.420173
-0.418535
-0.415033
-0.409646
-0.402422
-0.39341
-0.382667
-0.370265
-0.356297
-0.340878
-0.324144
-0.306265
-0.287462
-0.268025
-0.24835
-0.228958
-0.210505
-0.19369
-0.179204
-0.167104
-0.157618
-0.147371
-0.140033
-0.138848
-0.0985135
-0.0973426
-0.0968414
-0.0990423
-0.105105
-0.115237
-0.129056
-0.145932
-0.165144
-0.185908
-0.207433
-0.229015
-0.250117
-0.270386
-0.289618
-0.307703
-0.324567
-0.340143
-0.354356
-0.367118
-0.378336
-0.387917
-0.395778
-0.401845
-0.406054
-0.408359
-0.408726
-0.407142
-0.403615
-0.398108
-0.390663
-0.381333
-0.370169
-0.357245
-0.342651
-0.326504
-0.308949
-0.29017
-0.270409
-0.249993
-0.229366
-0.209105
-0.189929
-0.17259
-0.157812
-0.145644
-0.13648
-0.127367
-0.120958
-0.119752
-0.0954054
-0.0943706
-0.0936307
-0.0947656
-0.0989807
-0.106782
-0.118085
-0.132497
-0.1495
-0.168487
-0.188778
-0.209689
-0.230614
-0.251083
-0.270769
-0.289454
-0.30699
-0.323262
-0.338164
-0.351591
-0.363437
-0.373597
-0.381978
-0.388495
-0.393078
-0.395671
-0.396234
-0.394744
-0.391216
-0.385602
-0.377938
-0.368274
-0.356662
-0.343168
-0.327885
-0.31093
-0.292454
-0.272658
-0.251809
-0.230274
-0.208547
-0.187268
-0.167217
-0.149192
-0.133949
-0.12154
-0.112308
-0.103829
-0.0977701
-0.0962603
-0.0925594
-0.091679
-0.0908537
-0.0911681
-0.0936549
-0.0989838
-0.107405
-0.118868
-0.133145
-0.149851
-0.168459
-0.188341
-0.208852
-0.229411
-0.249551
-0.268922
-0.28727
-0.304403
-0.320167
-0.334423
-0.347046
-0.357918
-0.366935
-0.374003
-0.379044
-0.381997
-0.382815
-0.381468
-0.377969
-0.37227
-0.364396
-0.354392
-0.34231
-0.328212
-0.312188
-0.294358
-0.27488
-0.253973
-0.231931
-0.209164
-0.186218
-0.163796
-0.142736
-0.123876
-0.107986
-0.0950816
-0.0854566
-0.0769835
-0.070521
-0.0680326
-0.0900078
-0.0892902
-0.0885021
-0.0882546
-0.0892284
-0.0920662
-0.0973134
-0.105356
-0.116361
-0.130248
-0.146685
-0.165133
-0.184935
-0.205415
-0.225962
-0.246074
-0.26536
-0.283524
-0.300335
-0.315606
-0.329181
-0.340923
-0.350714
-0.358452
-0.364054
-0.367451
-0.368594
-0.367448
-0.364018
-0.358266
-0.3502
-0.339863
-0.327304
-0.312583
-0.295789
-0.277043
-0.256515
-0.234439
-0.211141
-0.18707
-0.162827
-0.139172
-0.116989
-0.0971439
-0.0803992
-0.0666892
-0.056356
-0.0470991
-0.0394127
-0.0346681
-0.0877419
-0.0872
-0.0865395
-0.0859536
-0.0856627
-0.0860965
-0.087992
-0.092208
-0.0994242
-0.109958
-0.123729
-0.140323
-0.159091
-0.179278
-0.200134
-0.220995
-0.241311
-0.260655
-0.278695
-0.295174
-0.309888
-0.322674
-0.333395
-0.34194
-0.348219
-0.352159
-0.35371
-0.352834
-0.349525
-0.343765
-0.335541
-0.324894
-0.311873
-0.296538
-0.278978
-0.259318
-0.237738
-0.214489
-0.189928
-0.164542
-0.138975
-0.114029
-0.0906197
-0.0696165
-0.0517555
-0.0368921
-0.0254752
-0.0145051
-0.00508335
0.0038926
-0.0857052
-0.0853689
-0.0849058
-0.0841331
-0.0827783
-0.0809448
-0.0794381
-0.0795604
-0.0825729
-0.0892877
-0.0999479
-0.114295
-0.13171
-0.15137
-0.172397
-0.193962
-0.215349
-0.235978
-0.255397
-0.273257
-0.289291
-0.303294
-0.315107
-0.324603
-0.331685
-0.33628
-0.338332
-0.337806
-0.334689
-0.328978
-0.320651
-0.309744
-0.296308
-0.280408
-0.262133
-0.241616
-0.219046
-0.194695
-0.168941
-0.142297
-0.115435
-0.0891713
-0.064415
-0.0420105
-0.0226467
-0.00613761
0.00695159
0.0206999
0.0316253
0.0474606
-0.0837765
-0.083701
-0.0834933
-0.0825893
-0.0802567
-0.0762707
-0.0714245
-0.067381
-0.0659754
-0.068571
-0.0757961
-0.0875905
-0.103384
-0.122301
-0.143343
-0.165524
-0.187963
-0.209921
-0.23081
-0.250176
-0.267672
-0.283042
-0.296092
-0.306676
-0.314687
-0.320048
-0.322704
-0.32262
-0.31978
-0.314194
-0.305843
-0.294758
-0.280997
-0.264628
-0.24575
-0.224502
-0.201086
-0.175787
-0.148994
-0.121229
-0.0931555
-0.06556
-0.039296
-0.0151283
0.00634334
0.0253621
0.0413321
0.0593145
0.0716557
0.0981204
-0.0817616
-0.0820134
-0.0820941
-0.0810038
-0.0776374
-0.0715509
-0.0635189
-0.0554676
-0.0497192
-0.0481656
-0.0518475
-0.0609396
-0.0749473
-0.0929586
-0.113869
-0.136552
-0.15997
-0.183229
-0.205605
-0.226528
-0.245566
-0.262398
-0.276788
-0.288566
-0.297612
-0.303841
-0.307199
-0.307653
-0.305188
-0.299819
-0.291549
-0.280405
-0.266451
-0.249767
-0.230462
-0.208686
-0.18465
-0.158641
-0.131045
-0.102357
-0.0731882
-0.0442389
-0.0162411
0.0101881
0.0346146
0.0574685
0.0783585
0.10313
0.120134
0.163186
-0.0794471
-0.0800543
-0.0804206
-0.0789796
-0.0743802
-0.0661711
-0.0551948
-0.0435391
-0.0338628
-0.0284818
-0.0288147
-0.0352832
-0.0474951
-0.0645284
-0.0851988
-0.108261
-0.132539
-0.157002
-0.180795
-0.203237
-0.223809
-0.242119
-0.257886
-0.27091
-0.281052
-0.28822
-0.292359
-0.293439
-0.291452
-0.28641
-0.278342
-0.267283
-0.253311
-0.236518
-0.217022
-0.194984
-0.170615
-0.144194
-0.116072
-0.0866807
-0.0565243
-0.0261489
0.00391143
0.0332703
0.0617468
0.0900909
0.118308
0.15349
0.183272
0.247968
-0.0769372
-0.0777854
-0.0782821
-0.0762356
-0.0701859
-0.0597594
-0.0460951
-0.0314438
-0.018573
-0.0100428
-0.0075574
-0.011753
-0.0223511
-0.0384514
-0.0588279
-0.0821517
-0.10714
-0.132647
-0.157707
-0.181539
-0.20354
-0.223254
-0.24035
-0.254596
-0.265834
-0.273963
-0.278926
-0.280697
-0.279275
-0.274679
-0.266946
-0.256125
-0.242314
-0.22563
-0.206198
-0.184177
-0.159768
-0.133219
-0.104822
-0.0749043
-0.0438104
-0.0118559
0.0207314
0.0539451
0.0880299
0.124177
0.162701
0.212358
0.259865
0.338442
-0.0755173
-0.0762144
-0.0763409
-0.0731152
-0.065235
-0.0525845
-0.0365091
-0.0195185
-0.00438884
0.00637939
0.0108895
0.00836099
-0.00100455
-0.0163456
-0.0364382
-0.059916
-0.0854305
-0.111756
-0.137843
-0.162833
-0.186051
-0.206986
-0.225263
-0.240617
-0.25287
-0.261913
-0.267683
-0.27016
-0.26935
-0.265286
-0.258023
-0.247604
-0.234116
-0.217702
-0.198512
-0.176705
-0.152453
-0.125958
-0.0974325
-0.0670745
-0.035025
-0.00129058
0.0343603
0.0725947
0.11458
0.162647
0.217864
0.288992
0.349364
0.424343
-0.0796919
-0.0789911
-0.0773804
-0.0717694
-0.0612224
-0.0459859
-0.0276644
-0.00885957
0.00764965
0.0196524
0.0253848
0.023847
0.0152271
0.000364141
-0.0195424
-0.0431242
-0.069005
-0.0959153
-0.122754
-0.148608
-0.172753
-0.194634
-0.21384
-0.230083
-0.243166
-0.252971
-0.259432
-0.262529
-0.262275
-0.258709
-0.251894
-0.24192
-0.228864
-0.212807
-0.193906
-0.172338
-0.148266
-0.121844
-0.0932019
-0.0624023
-0.0293599
0.00629054
0.045398
0.0896771
0.142048
0.207733
0.291527
0.403453
0.495726
0.603316
-0.103123
-0.0953011
-0.0868533
-0.0760638
-0.061701
-0.043372
-0.0227217
-0.00232797
0.0153622
0.0281386
0.034313
0.0331992
0.0249889
0.0104728
-0.00919545
-0.0326817
-0.0586252
-0.0857525
-0.112942
-0.139255
-0.163933
-0.186391
-0.206193
-0.223026
-0.23668
-0.247023
-0.253986
-0.257546
-0.257715
-0.254535
-0.248073
-0.238412
-0.225653
-0.209902
-0.191286
-0.169944
-0.146023
-0.119648
-0.0908825
-0.059663
-0.0256869
0.0117904
0.0542836
0.104713
0.16821
0.254269
0.375564
0.55562
0.767599
1.10777
-0.189956
-0.112199
-0.0806097
-0.0713802
-0.0581032
-0.0387324
-0.0170399
0.00396064
0.0217608
0.0341863
0.0398331
0.0382187
0.0296158
0.014844
-0.00495002
-0.0284687
-0.0543971
-0.0815007
-0.108685
-0.135025
-0.159768
-0.182327
-0.202259
-0.219247
-0.233072
-0.243598
-0.250748
-0.254498
-0.254857
-0.251867
-0.245593
-0.236117
-0.22354
-0.20797
-0.189529
-0.168346
-0.144556
-0.118253
-0.0894445
-0.05797
-0.0233622
0.015404
0.0603203
0.115129
0.186391
0.286453
0.435205
0.680278
1.0793
1.82847
)
;

boundaryField
{
    movingWall
    {
        type            zeroGradient;
    }
    fixedWalls
    {
        type            zeroGradient;
    }
    frontAndBack
    {
        type            empty;
    }
}


// ************************************************************************* //
