/*--------------------------------*- C++ -*----------------------------------*\
  =========                 |
  \\      /  F ield         | OpenFOAM: The Open Source CFD Toolbox
   \\    /   O peration     | Website:  https://openfoam.org
    \\  /    A nd           | Version:  7
     \\/     M anipulation  |
\*---------------------------------------------------------------------------*/
FoamFile
{
    version     2.0;
    format      ascii;
    class       volVectorField;
    location    "950";
    object      U;
}
// * * * * * * * * * * * * * * * * * * * * * * * * * * * * * * * * * * * * * //

dimensions      [0 1 -1 0 0 0 0];

internalField   nonuniform List<vector> 
2500
(
(0.000206733 -0.000202062 0)
(0.00186514 -0.000571588 0)
(0.00447412 -0.000698029 0)
(0.00716354 -0.000600117 0)
(0.00922967 -0.000419037 0)
(0.010451 -0.000264358 0)
(0.0109307 -0.000188045 0)
(0.0108815 -0.000185936 0)
(0.0104508 -0.000219932 0)
(0.0096341 -0.000245488 0)
(0.00828206 -0.000228716 0)
(0.0061623 -0.000150766 0)
(0.00301749 -2.59137e-06 0)
(-0.00139615 0.000221189 0)
(-0.00728328 0.000523711 0)
(-0.0147765 0.000908521 0)
(-0.0238982 0.00137565 0)
(-0.0345184 0.00191348 0)
(-0.0463193 0.00248877 0)
(-0.0587749 0.00303923 0)
(-0.0711565 0.00347508 0)
(-0.0825707 0.00369174 0)
(-0.0920283 0.00359069 0)
(-0.0985465 0.0031067 0)
(-0.10126 0.00223404 0)
(-0.0994941 0.00103075 0)
(-0.092981 -0.000372426 0)
(-0.0817936 -0.00180989 0)
(-0.0663993 -0.00310802 0)
(-0.0476544 -0.00409991 0)
(-0.0267775 -0.00464059 0)
(-0.00525126 -0.00460745 0)
(0.0153985 -0.00393807 0)
(0.0337017 -0.00278711 0)
(0.0483511 -0.00137424 0)
(0.0583905 0.0001228 0)
(0.0634389 0.00149431 0)
(0.0637086 0.00253219 0)
(0.0600051 0.00311049 0)
(0.053494 0.00322408 0)
(0.0454069 0.00298616 0)
(0.0368476 0.00254961 0)
(0.0286531 0.00204886 0)
(0.0213439 0.00157457 0)
(0.0151496 0.00117445 0)
(0.0100815 0.000863611 0)
(0.00603019 0.000631402 0)
(0.00290187 0.000436159 0)
(0.000795685 0.000192904 0)
(-8.19581e-05 -8.73552e-05 0)
(0.000565979 -0.00182003 0)
(0.00437403 -0.00431812 0)
(0.00958189 -0.00511768 0)
(0.0146038 -0.00444106 0)
(0.0181613 -0.00299827 0)
(0.0197677 -0.00145758 0)
(0.0194615 -0.000192135 0)
(0.0174542 0.000766065 0)
(0.0138306 0.00162592 0)
(0.00840166 0.00266621 0)
(0.00073049 0.00410422 0)
(-0.0097393 0.00604585 0)
(-0.0235369 0.00849528 0)
(-0.0410247 0.0113854 0)
(-0.0622829 0.0145779 0)
(-0.087004 0.0178468 0)
(-0.11443 0.020872 0)
(-0.143366 0.0232609 0)
(-0.17229 0.0246047 0)
(-0.199521 0.0245462 0)
(-0.223402 0.0228387 0)
(-0.242454 0.0193823 0)
(-0.255478 0.0142411 0)
(-0.261616 0.00764769 0)
(-0.260394 -8.04217e-06 0)
(-0.251744 -0.00821008 0)
(-0.235862 -0.0163879 0)
(-0.213194 -0.0239876 0)
(-0.184508 -0.0304466 0)
(-0.150891 -0.0352308 0)
(-0.113752 -0.0378776 0)
(-0.0747911 -0.0380433 0)
(-0.0359166 -0.0355833 0)
(0.000937387 -0.0306802 0)
(0.0339251 -0.0238321 0)
(0.0613693 -0.015765 0)
(0.0819524 -0.0073002 0)
(0.0949526 0.000679871 0)
(0.100235 0.00733171 0)
(0.0984123 0.0120728 0)
(0.0909397 0.0147053 0)
(0.0796029 0.0154307 0)
(0.0662282 0.0147134 0)
(0.0524137 0.013107 0)
(0.0393377 0.0111173 0)
(0.0276952 0.00911087 0)
(0.0177747 0.00724948 0)
(0.0096832 0.00543535 0)
(0.00372673 0.00334383 0)
(0.000329389 0.000918808 0)
(0.00078571 -0.00449655 0)
(0.00568844 -0.00969649 0)
(0.0117176 -0.010918 0)
(0.0169059 -0.00900569 0)
(0.0197624 -0.00542329 0)
(0.0197102 -0.00146855 0)
(0.0166668 0.00215426 0)
(0.01063 0.00542534 0)
(0.00137443 0.00878397 0)
(-0.0116321 0.0127966 0)
(-0.0291026 0.0178492 0)
(-0.0516647 0.0240189 0)
(-0.0796238 0.031094 0)
(-0.11275 0.0386107 0)
(-0.150169 0.0458885 0)
(-0.190404 0.0521087 0)
(-0.231567 0.0564476 0)
(-0.271623 0.0582191 0)
(-0.308646 0.0569768 0)
(-0.341011 0.0525546 0)
(-0.367482 0.0450526 0)
(-0.387214 0.0347863 0)
(-0.399694 0.022228 0)
(-0.404661 0.0079571 0)
(-0.40204 -0.00737553 0)
(-0.391809 -0.0230864 0)
(-0.374006 -0.0384649 0)
(-0.348898 -0.0527247 0)
(-0.316969 -0.0650306 0)
(-0.278988 -0.0745415 0)
(-0.236046 -0.0804835 0)
(-0.189579 -0.0822484 0)
(-0.141345 -0.0795057 0)
(-0.0933481 -0.0723094 0)
(-0.0477021 -0.0612068 0)
(-0.00640091 -0.0472035 0)
(0.0288326 -0.0315909 0)
(0.0566395 -0.0158166 0)
(0.0763276 -0.0011707 0)
(0.087624 0.0111501 0)
(0.0907904 0.0202378 0)
(0.0870798 0.0257283 0)
(0.0781975 0.0278536 0)
(0.0660332 0.0273027 0)
(0.052387 0.0249745 0)
(0.0387204 0.0217244 0)
(0.0260339 0.0181227 0)
(0.0149682 0.0142401 0)
(0.0062567 0.00958402 0)
(0.00070527 0.00358728 0)
(0.000917758 -0.00772797 0)
(0.00606813 -0.0155938 0)
(0.0115453 -0.0165382 0)
(0.0151617 -0.0124507 0)
(0.0154141 -0.00573147 0)
(0.0117438 0.00170274 0)
(0.00392615 0.00894667 0)
(-0.00838795 0.0161091 0)
(-0.0258639 0.0239531 0)
(-0.0493173 0.0332296 0)
(-0.0793854 0.0442183 0)
(-0.116165 0.0565779 0)
(-0.158989 0.0694324 0)
(-0.206401 0.0815587 0)
(-0.256364 0.0916274 0)
(-0.306592 0.098453 0)
(-0.354912 0.101189 0)
(-0.399517 0.0994126 0)
(-0.439072 0.0931097 0)
(-0.4727 0.0825824 0)
(-0.499882 0.0683344 0)
(-0.520318 0.0509624 0)
(-0.53381 0.031091 0)
(-0.540195 0.009358 0)
(-0.53932 -0.01357 0)
(-0.531 -0.0369635 0)
(-0.5151 -0.0599816 0)
(-0.491594 -0.0816602 0)
(-0.460591 -0.100928 0)
(-0.422413 -0.116642 0)
(-0.377677 -0.127669 0)
(-0.327395 -0.133012 0)
(-0.273038 -0.131972 0)
(-0.216546 -0.124344 0)
(-0.160232 -0.11056 0)
(-0.106576 -0.0917319 0)
(-0.0579267 -0.0695599 0)
(-0.0161564 -0.0460461 0)
(0.0175407 -0.0231054 0)
(0.0425744 -0.00248121 0)
(0.0588828 0.0145897 0)
(0.0667252 0.0271836 0)
(0.0672128 0.0349251 0)
(0.0619008 0.0381555 0)
(0.0525786 0.0377788 0)
(0.0410378 0.0349302 0)
(0.0288294 0.0305672 0)
(0.0171888 0.025032 0)
(0.00742099 0.0177408 0)
(0.000862083 0.00736647 0)
(0.000999758 -0.011019 0)
(0.00561023 -0.0208282 0)
(0.00922678 -0.0203473 0)
(0.00967367 -0.0128991 0)
(0.00561277 -0.00193132 0)
(-0.00347477 0.010133 0)
(-0.0180538 0.0223937 0)
(-0.0388802 0.0352946 0)
(-0.0668877 0.0497757 0)
(-0.102728 0.0663623 0)
(-0.146299 0.0846811 0)
(-0.196524 0.103501 0)
(-0.251464 0.121091 0)
(-0.30867 0.135657 0)
(-0.365636 0.145712 0)
(-0.420183 0.150308 0)
(-0.470669 0.149078 0)
(-0.516007 0.142145 0)
(-0.555567 0.129962 0)
(-0.589028 0.113156 0)
(-0.616235 0.0923997 0)
(-0.637098 0.0683442 0)
(-0.651548 0.0416245 0)
(-0.659517 0.0128788 0)
(-0.660904 -0.0172387 0)
(-0.655567 -0.0480114 0)
(-0.643286 -0.0785844 0)
(-0.623795 -0.107938 0)
(-0.596806 -0.134888 0)
(-0.562083 -0.158083 0)
(-0.519569 -0.176056 0)
(-0.469561 -0.187336 0)
(-0.412874 -0.190664 0)
(-0.350984 -0.185266 0)
(-0.286091 -0.171129 0)
(-0.221033 -0.149181 0)
(-0.158976 -0.12131 0)
(-0.102925 -0.0901227 0)
(-0.0551658 -0.0584708 0)
(-0.016889 -0.0288734 0)
(0.0117797 -0.00310649 0)
(0.0312203 0.0176278 0)
(0.0419861 0.0326594 0)
(0.045281 0.0418339 0)
(0.0426243 0.0456895 0)
(0.0357424 0.0452942 0)
(0.026398 0.0417574 0)
(0.0162498 0.0355993 0)
(0.00710939 0.0261577 0)
(0.000796433 0.0113834 0)
(0.000995662 -0.0139235 0)
(0.00416046 -0.0242937 0)
(0.00457736 -0.0208752 0)
(0.00038922 -0.00872073 0)
(-0.0094769 0.00766776 0)
(-0.0255836 0.0256088 0)
(-0.0486743 0.0445011 0)
(-0.0797291 0.0650181 0)
(-0.119462 0.0878159 0)
(-0.167689 0.11258 0)
(-0.223064 0.137856 0)
(-0.283282 0.161488 0)
(-0.345578 0.181258 0)
(-0.407258 0.195386 0)
(-0.466099 0.202803 0)
(-0.520521 0.203166 0)
(-0.569549 0.196699 0)
(-0.612673 0.183976 0)
(-0.649701 0.165746 0)
(-0.680641 0.142798 0)
(-0.705614 0.115876 0)
(-0.724809 0.0856744 0)
(-0.73846 0.0528562 0)
(-0.74677 0.0180367 0)
(-0.749832 -0.0182098 0)
(-0.747639 -0.0552758 0)
(-0.740006 -0.0924398 0)
(-0.726505 -0.128813 0)
(-0.706512 -0.163298 0)
(-0.679252 -0.194518 0)
(-0.643931 -0.2208 0)
(-0.599913 -0.240266 0)
(-0.54695 -0.25103 0)
(-0.485486 -0.251496 0)
(-0.416933 -0.240742 0)
(-0.34383 -0.218917 0)
(-0.26975 -0.187535 0)
(-0.19888 -0.14945 0)
(-0.135274 -0.108434 0)
(-0.0819336 -0.0683631 0)
(-0.0401512 -0.0323597 0)
(-0.0095521 -0.00228772 0)
(0.0110309 0.0211203 0)
(0.0227888 0.0375833 0)
(0.0271496 0.0473169 0)
(0.0257771 0.0511028 0)
(0.0204614 0.0499348 0)
(0.013076 0.0443177 0)
(0.00574842 0.0334767 0)
(0.00059092 0.014894 0)
(0.000839678 -0.0158641 0)
(0.00148183 -0.024767 0)
(-0.00260072 -0.0166883 0)
(-0.0126948 0.00145913 0)
(-0.0295849 0.0244166 0)
(-0.0539455 0.0495875 0)
(-0.0866765 0.0766632 0)
(-0.128536 0.106107 0)
(-0.179399 0.137671 0)
(-0.237835 0.169807 0)
(-0.301316 0.200034 0)
(-0.366809 0.22572 0)
(-0.431401 0.244748 0)
(-0.492727 0.255859 0)
(-0.549132 0.258659 0)
(-0.599621 0.253434 0)
(-0.643716 0.240885 0)
(-0.681318 0.221922 0)
(-0.712614 0.197525 0)
(-0.73799 0.168642 0)
(-0.757963 0.136127 0)
(-0.773133 0.100742 0)
(-0.784085 0.0631325 0)
(-0.791291 0.0238071 0)
(-0.795061 -0.016808 0)
(-0.795558 -0.0582911 0)
(-0.792703 -0.100191 0)
(-0.786041 -0.141924 0)
(-0.77481 -0.182667 0)
(-0.757934 -0.221229 0)
(-0.734066 -0.255996 0)
(-0.701702 -0.284937 0)
(-0.659418 -0.305703 0)
(-0.606244 -0.315851 0)
(-0.542113 -0.313265 0)
(-0.468291 -0.29672 0)
(-0.387677 -0.266474 0)
(-0.304761 -0.22467 0)
(-0.225077 -0.175325 0)
(-0.154097 -0.123671 0)
(-0.0958231 -0.0749009 0)
(-0.051716 -0.0328109 0)
(-0.0207629 0.00084487 0)
(-0.000756112 0.0259293 0)
(0.0103001 0.0427747 0)
(0.0143081 0.0520028 0)
(0.0132039 0.0544103 0)
(0.00901102 0.0503502 0)
(0.00399989 0.0389251 0)
(0.00036215 0.0174917 0)
(0.000464727 -0.0160956 0)
(-0.00257612 -0.020968 0)
(-0.0122908 -0.00660878 0)
(-0.0292432 0.0186706 0)
(-0.0539636 0.0492869 0)
(-0.0872036 0.0828959 0)
(-0.129687 0.119145 0)
(-0.181421 0.157687 0)
(-0.241081 0.196968 0)
(-0.306078 0.234277 0)
(-0.373175 0.266566 0)
(-0.439205 0.291297 0)
(-0.501562 0.306906 0)
(-0.558405 0.312859 0)
(-0.608621 0.309448 0)
(-0.651704 0.297508 0)
(-0.687626 0.278161 0)
(-0.71675 0.252655 0)
(-0.73973 0.222227 0)
(-0.757406 0.187995 0)
(-0.770699 0.150909 0)
(-0.780526 0.111728 0)
(-0.787682 0.0709862 0)
(-0.79279 0.0290279 0)
(-0.796314 -0.0138983 0)
(-0.798538 -0.0576077 0)
(-0.799491 -0.101971 0)
(-0.798855 -0.146764 0)
(-0.796006 -0.191534 0)
(-0.789914 -0.235479 0)
(-0.779079 -0.277351 0)
(-0.761541 -0.315335 0)
(-0.735029 -0.346995 0)
(-0.697254 -0.369365 0)
(-0.64638 -0.379266 0)
(-0.581651 -0.373874 0)
(-0.504079 -0.35148 0)
(-0.416946 -0.312328 0)
(-0.325826 -0.259243 0)
(-0.237876 -0.197653 0)
(-0.160291 -0.134637 0)
(-0.0982526 -0.0770376 0)
(-0.053326 -0.0294031 0)
(-0.0235882 0.00684733 0)
(-0.00556753 0.0324314 0)
(0.00360947 0.0482804 0)
(0.006455 0.0552386 0)
(0.00528753 0.0535813 0)
(0.00248685 0.0423726 0)
(0.000209187 0.0191555 0)
(-0.000172354 -0.013784 0)
(-0.00796859 -0.011823 0)
(-0.0241276 0.0102131 0)
(-0.048447 0.0435191 0)
(-0.0812446 0.082657 0)
(-0.123157 0.125409 0)
(-0.17432 0.170845 0)
(-0.233661 0.217366 0)
(-0.298714 0.262121 0)
(-0.366143 0.301658 0)
(-0.432527 0.332915 0)
(-0.494961 0.353881 0)
(-0.55133 0.363751 0)
(-0.600333 0.362749 0)
(-0.641393 0.351822 0)
(-0.67454 0.332344 0)
(-0.700303 0.305888 0)
(-0.719591 0.274046 0)
(-0.733532 0.238274 0)
(-0.743319 0.199778 0)
(-0.750092 0.159486 0)
(-0.754846 0.118035 0)
(-0.758367 0.0757811 0)
(-0.761254 0.0328922 0)
(-0.763975 -0.01057 0)
(-0.766831 -0.0546452 0)
(-0.76993 -0.0994433 0)
(-0.773193 -0.145021 0)
(-0.776315 -0.191289 0)
(-0.778618 -0.237932 0)
(-0.778915 -0.284265 0)
(-0.775413 -0.329024 0)
(-0.765667 -0.370175 0)
(-0.746661 -0.404829 0)
(-0.715142 -0.429315 0)
(-0.668251 -0.439539 0)
(-0.604411 -0.431702 0)
(-0.524303 -0.40338 0)
(-0.43161 -0.354728 0)
(-0.333155 -0.2894 0)
(-0.23798 -0.214603 0)
(-0.155231 -0.139747 0)
(-0.0912588 -0.0736534 0)
(-0.0474111 -0.0215589 0)
(-0.0204359 0.015785 0)
(-0.005477 0.0400992 0)
(0.00120175 0.0527677 0)
(0.0026723 0.0543791 0)
(0.00160537 0.0441967 0)
(0.000183903 0.0201661 0)
(-0.00107317 -0.00816127 0)
(-0.0144193 0.00341672 0)
(-0.0373736 0.0341562 0)
(-0.0690515 0.076061 0)
(-0.109509 0.12415 0)
(-0.158999 0.175964 0)
(-0.216778 0.229529 0)
(-0.280686 0.281885 0)
(-0.347449 0.329218 0)
(-0.413456 0.367862 0)
(-0.475476 0.395186 0)
(-0.531069 0.409944 0)
(-0.578686 0.412171 0)
(-0.61763 0.402869 0)
(-0.64796 0.383662 0)
(-0.67036 0.356493 0)
(-0.685978 0.323363 0)
(-0.696211 0.286114 0)
(-0.702492 0.246262 0)
(-0.706121 0.204933 0)
(-0.70818 0.162876 0)
(-0.709492 0.120502 0)
(-0.710636 0.0779684 0)
(-0.712025 0.03528 0)
(-0.71397 -0.00765787 0)
(-0.716708 -0.0510147 0)
(-0.720377 -0.0949904 0)
(-0.725097 -0.139777 0)
(-0.730889 -0.185539 0)
(-0.737558 -0.232361 0)
(-0.744552 -0.280114 0)
(-0.750763 -0.328249 0)
(-0.754301 -0.375551 0)
(-0.752322 -0.419855 0)
(-0.741085 -0.457815 0)
(-0.71633 -0.484907 0)
(-0.674064 -0.495859 0)
(-0.611753 -0.48563 0)
(-0.529678 -0.450882 0)
(-0.432034 -0.391681 0)
(-0.327147 -0.312817 0)
(-0.226234 -0.223874 0)
(-0.140488 -0.137209 0)
(-0.0771258 -0.0638471 0)
(-0.0365984 -0.00933155 0)
(-0.0137863 0.0267876 0)
(-0.00262963 0.0471358 0)
(0.00130188 0.0532412 0)
(0.0014464 0.0450133 0)
(0.000288193 0.0209435 0)
(-0.00218033 0.00131943 0)
(-0.0214298 0.0250387 0)
(-0.0510269 0.0650817 0)
(-0.0895072 0.115764 0)
(-0.136556 0.172633 0)
(-0.191817 0.232578 0)
(-0.253589 0.292345 0)
(-0.318868 0.34781 0)
(-0.383983 0.394667 0)
(-0.445416 0.429498 0)
(-0.500363 0.450396 0)
(-0.546968 0.45702 0)
(-0.584349 0.450308 0)
(-0.612535 0.432089 0)
(-0.632326 0.40469 0)
(-0.645082 0.370571 0)
(-0.652456 0.332012 0)
(-0.656108 0.290887 0)
(-0.657486 0.248554 0)
(-0.657721 0.205868 0)
(-0.657598 0.163277 0)
(-0.65761 0.120929 0)
(-0.658032 0.0787938 0)
(-0.659011 0.0367525 0)
(-0.660651 -0.00536718 0)
(-0.663091 -0.0477479 0)
(-0.666439 -0.0905631 0)
(-0.670886 -0.134004 0)
(-0.676647 -0.178308 0)
(-0.683916 -0.223739 0)
(-0.692762 -0.270531 0)
(-0.702927 -0.318771 0)
(-0.713523 -0.368174 0)
(-0.722705 -0.417702 0)
(-0.727377 -0.465107 0)
(-0.723136 -0.506532 0)
(-0.704642 -0.536438 0)
(-0.666635 -0.548103 0)
(-0.605529 -0.534917 0)
(-0.521271 -0.492455 0)
(-0.41882 -0.420875 0)
(-0.308399 -0.326734 0)
(-0.203735 -0.222912 0)
(-0.117982 -0.125427 0)
(-0.0584625 -0.0474005 0)
(-0.0236495 0.00622307 0)
(-0.00619271 0.0377456 0)
(0.00067773 0.0503794 0)
(0.00180937 0.0453483 0)
(0.000485777 0.0218708 0)
(-0.00335849 0.0148912 0)
(-0.0283531 0.0528411 0)
(-0.063968 0.102364 0)
(-0.108205 0.161543 0)
(-0.160271 0.226383 0)
(-0.219091 0.292824 0)
(-0.282143 0.356354 0)
(-0.345911 0.412049 0)
(-0.406692 0.455575 0)
(-0.46132 0.484113 0)
(-0.507569 0.49668 0)
(-0.544285 0.493947 0)
(-0.571371 0.47783 0)
(-0.589659 0.451006 0)
(-0.600669 0.416428 0)
(-0.60628 0.376887 0)
(-0.608371 0.334678 0)
(-0.60855 0.291442 0)
(-0.607998 0.248168 0)
(-0.607465 0.205322 0)
(-0.607339 0.163015 0)
(-0.60776 0.121162 0)
(-0.608729 0.0796001 0)
(-0.610178 0.0381519 0)
(-0.612061 -0.00334908 0)
(-0.614427 -0.0450299 0)
(-0.617332 -0.0869907 0)
(-0.620918 -0.129341 0)
(-0.625431 -0.172242 0)
(-0.631209 -0.215927 0)
(-0.638656 -0.260728 0)
(-0.648121 -0.307063 0)
(-0.659691 -0.355315 0)
(-0.672838 -0.405542 0)
(-0.685924 -0.456969 0)
(-0.695703 -0.507327 0)
(-0.697105 -0.552199 0)
(-0.683642 -0.584781 0)
(-0.648685 -0.596502 0)
(-0.587587 -0.578842 0)
(-0.500174 -0.526256 0)
(-0.392658 -0.43951 0)
(-0.277781 -0.328026 0)
(-0.17211 -0.209281 0)
(-0.0902972 -0.103585 0)
(-0.0383264 -0.0252916 0)
(-0.0113409 0.0228921 0)
(-0.000156723 0.0453543 0)
(0.00229623 0.0453458 0)
(0.000720544 0.0231529 0)
(-0.00444372 0.0324015 0)
(-0.0345368 0.0861588 0)
(-0.07514 0.144946 0)
(-0.123718 0.211893 0)
(-0.178937 0.283364 0)
(-0.23904 0.354227 0)
(-0.300922 0.418924 0)
(-0.360891 0.47215 0)
(-0.415485 0.509932 0)
(-0.462065 0.53031 0)
(-0.499104 0.533378 0)
(-0.52625 0.520917 0)
(-0.544239 0.495843 0)
(-0.554655 0.461597 0)
(-0.559544 0.421548 0)
(-0.560996 0.378513 0)
(-0.560784 0.334505 0)
(-0.560174 0.290705 0)
(-0.559903 0.247622 0)
(-0.560282 0.20532 0)
(-0.561339 0.163636 0)
(-0.562963 0.122341 0)
(-0.564996 0.0812191 0)
(-0.567281 0.0401035 0)
(-0.569715 -0.00112139 0)
(-0.572301 -0.0425165 0)
(-0.575059 -0.0841122 0)
(-0.578047 -0.125928 0)
(-0.581425 -0.168008 0)
(-0.585462 -0.210456 0)
(-0.590559 -0.253497 0)
(-0.597255 -0.297534 0)
(-0.606165 -0.343168 0)
(-0.617768 -0.391101 0)
(-0.631966 -0.441815 0)
(-0.647409 -0.494909 0)
(-0.660765 -0.548108 0)
(-0.666281 -0.596261 0)
(-0.656198 -0.630913 0)
(-0.622416 -0.641165 0)
(-0.55935 -0.616263 0)
(-0.467207 -0.549764 0)
(-0.354288 -0.444107 0)
(-0.236662 -0.31337 0)
(-0.13389 -0.181271 0)
(-0.0609092 -0.0724402 0)
(-0.0200601 -0.000217471 0)
(-0.0022711 0.0369293 0)
(0.00246863 0.0446204 0)
(0.000939864 0.0247504 0)
(-0.00528772 0.0532881 0)
(-0.03942 0.123933 0)
(-0.0836851 0.191455 0)
(-0.134981 0.265078 0)
(-0.191434 0.341498 0)
(-0.250741 0.41456 0)
(-0.309488 0.477972 0)
(-0.364078 0.526438 0)
(-0.411483 0.556659 0)
(-0.449712 0.567732 0)
(-0.478018 0.560948 0)
(-0.496878 0.539235 0)
(-0.507788 0.506432 0)
(-0.512874 0.466524 0)
(-0.514398 0.422972 0)
(-0.514318 0.378296 0)
(-0.514022 0.333979 0)
(-0.51428 0.290636 0)
(-0.515362 0.248304 0)
(-0.517221 0.206744 0)
(-0.519661 0.165643 0)
(-0.522468 0.124731 0)
(-0.525458 0.083819 0)
(-0.528492 0.0427888 0)
(-0.531483 0.00158258 0)
(-0.534433 -0.0398141 0)
(-0.537361 -0.0813888 0)
(-0.540259 -0.123114 0)
(-0.543185 -0.164955 0)
(-0.546252 -0.2069 0)
(-0.549683 -0.249006 0)
(-0.55387 -0.29147 0)
(-0.559438 -0.334734 0)
(-0.567223 -0.379574 0)
(-0.578075 -0.427051 0)
(-0.592362 -0.478147 0)
(-0.609084 -0.532879 0)
(-0.624803 -0.588901 0)
(-0.632942 -0.640021 0)
(-0.624276 -0.675559 0)
(-0.589198 -0.681645 0)
(-0.521558 -0.645089 0)
(-0.422834 -0.559328 0)
(-0.304641 -0.430453 0)
(-0.187281 -0.279815 0)
(-0.0928369 -0.138958 0)
(-0.0339639 -0.0351999 0)
(-0.0065056 0.0231591 0)
(0.00201103 0.0423023 0)
(0.00111627 0.0264129 0)
(-0.00576923 0.0766452 0)
(-0.0425908 0.164831 0)
(-0.0890302 0.240345 0)
(-0.141378 0.319326 0)
(-0.197283 0.398887 0)
(-0.25408 0.472026 0)
(-0.308294 0.532053 0)
(-0.356629 0.574017 0)
(-0.396612 0.595535 0)
(-0.42697 0.596907 0)
(-0.447744 0.58068 0)
(-0.460158 0.550871 0)
(-0.466272 0.512038 0)
(-0.468453 0.46839 0)
(-0.468846 0.423133 0)
(-0.469011 0.378225 0)
(-0.469814 0.334502 0)
(-0.471536 0.292036 0)
(-0.474088 0.250519 0)
(-0.477219 0.209551 0)
(-0.480669 0.168797 0)
(-0.484241 0.128035 0)
(-0.487811 0.0871395 0)
(-0.491303 0.0460526 0)
(-0.49468 0.00475717 0)
(-0.497975 -0.0367393 0)
(-0.501213 -0.078413 0)
(-0.504366 -0.120235 0)
(-0.507424 -0.162151 0)
(-0.510384 -0.204099 0)
(-0.513283 -0.246018 0)
(-0.516262 -0.287901 0)
(-0.519659 -0.329901 0)
(-0.524123 -0.372484 0)
(-0.530663 -0.416599 0)
(-0.540501 -0.463698 0)
(-0.554481 -0.515326 0)
(-0.57192 -0.571944 0)
(-0.589132 -0.630939 0)
(-0.598437 -0.684491 0)
(-0.588886 -0.71881 0)
(-0.549445 -0.716347 0)
(-0.474162 -0.661674 0)
(-0.367267 -0.549872 0)
(-0.245291 -0.393993 0)
(-0.13333 -0.226065 0)
(-0.0540386 -0.0858382 0)
(-0.0133518 0.00162666 0)
(0.000771703 0.037211 0)
(0.0012536 0.0277817 0)
(-0.00581276 0.101339 0)
(-0.0438167 0.207371 0)
(-0.090912 0.290038 0)
(-0.142741 0.372988 0)
(-0.196578 0.453949 0)
(-0.249585 0.525326 0)
(-0.298429 0.580347 0)
(-0.340246 0.614679 0)
(-0.373186 0.627026 0)
(-0.396692 0.618978 0)
(-0.411515 0.594309 0)
(-0.419452 0.557958 0)
(-0.422849 0.514906 0)
(-0.424008 0.469233 0)
(-0.424703 0.423607 0)
(-0.425971 0.379286 0)
(-0.428177 0.336483 0)
(-0.431234 0.294859 0)
(-0.434861 0.253924 0)
(-0.438762 0.213259 0)
(-0.442721 0.172598 0)
(-0.446621 0.131803 0)
(-0.450421 0.0908199 0)
(-0.454108 0.0496365 0)
(-0.45769 0.00825439 0)
(-0.461225 -0.0333166 0)
(-0.464755 -0.0750619 0)
(-0.468252 -0.116973 0)
(-0.471688 -0.159017 0)
(-0.475015 -0.201136 0)
(-0.47817 -0.243238 0)
(-0.481106 -0.285218 0)
(-0.483863 -0.327004 0)
(-0.486698 -0.368687 0)
(-0.490256 -0.410744 0)
(-0.495708 -0.454314 0)
(-0.504637 -0.50131 0)
(-0.518347 -0.55393 0)
(-0.536366 -0.613019 0)
(-0.554444 -0.675237 0)
(-0.56332 -0.730157 0)
(-0.550017 -0.759647 0)
(-0.502503 -0.74185 0)
(-0.416465 -0.660219 0)
(-0.301014 -0.514982 0)
(-0.179294 -0.331189 0)
(-0.0805078 -0.154849 0)
(-0.0231573 -0.0304668 0)
(-0.00128271 0.0280152 0)
(0.00137129 0.0284797 0)
(-0.00539514 0.126127 0)
(-0.0430421 0.250047 0)
(-0.08935 0.339045 0)
(-0.139281 0.424641 0)
(-0.189849 0.505478 0)
(-0.238219 0.573651 0)
(-0.28134 0.622579 0)
(-0.316856 0.648748 0)
(-0.343539 0.652058 0)
(-0.361483 0.635392 0)
(-0.371998 0.603635 0)
(-0.377214 0.562393 0)
(-0.379485 0.516739 0)
(-0.380811 0.470327 0)
(-0.382474 0.425121 0)
(-0.385006 0.381678 0)
(-0.388391 0.339718 0)
(-0.392347 0.298664 0)
(-0.396549 0.257994 0)
(-0.400761 0.217368 0)
(-0.404858 0.176621 0)
(-0.408811 0.1357 0)
(-0.412644 0.0946058 0)
(-0.416386 0.0533462 0)
(-0.420063 0.0119253 0)
(-0.423746 -0.0296569 0)
(-0.427487 -0.0714003 0)
(-0.431269 -0.113321 0)
(-0.435069 -0.155413 0)
(-0.438845 -0.197652 0)
(-0.442517 -0.239978 0)
(-0.445968 -0.28228 0)
(-0.449075 -0.324405 0)
(-0.451779 -0.366209 0)
(-0.454253 -0.407714 0)
(-0.457136 -0.449417 0)
(-0.46177 -0.492712 0)
(-0.470125 -0.540096 0)
(-0.483931 -0.594515 0)
(-0.502672 -0.656994 0)
(-0.520966 -0.722584 0)
(-0.527309 -0.776641 0)
(-0.50656 -0.795146 0)
(-0.44676 -0.751966 0)
(-0.347634 -0.632456 0)
(-0.225928 -0.448122 0)
(-0.112319 -0.242538 0)
(-0.0363983 -0.0761173 0)
(-0.00422589 0.0132143 0)
(0.00146078 0.0280976 0)
(-0.00454111 0.149769 0)
(-0.0403597 0.291422 0)
(-0.0845865 0.386045 0)
(-0.131479 0.47314 0)
(-0.177909 0.552641 0)
(-0.221172 0.616614 0)
(-0.258594 0.658889 0)
(-0.288343 0.676899 0)
(-0.309762 0.671776 0)
(-0.323469 0.647624 0)
(-0.331135 0.61024 0)
(-0.334981 0.565613 0)
(-0.33715 0.518609 0)
(-0.339211 0.472261 0)
(-0.341955 0.42779 0)
(-0.345522 0.385162 0)
(-0.349676 0.343773 0)
(-0.354082 0.302972 0)
(-0.358475 0.262305 0)
(-0.362714 0.221548 0)
(-0.366767 0.180636 0)
(-0.370667 0.139576 0)
(-0.374476 0.0983923 0)
(-0.378237 0.0570984 0)
(-0.381975 0.0156882 0)
(-0.385758 -0.0258517 0)
(-0.389644 -0.0675332 0)
(-0.393625 -0.10939 0)
(-0.397686 -0.151439 0)
(-0.401805 -0.193689 0)
(-0.405926 -0.236123 0)
(-0.409947 -0.27868 0)
(-0.413714 -0.321233 0)
(-0.417035 -0.363578 0)
(-0.419763 -0.40549 0)
(-0.421994 -0.446923 0)
(-0.424394 -0.488442 0)
(-0.428535 -0.531821 0)
(-0.436822 -0.580359 0)
(-0.451316 -0.637829 0)
(-0.470988 -0.704874 0)
(-0.488437 -0.773298 0)
(-0.489137 -0.821883 0)
(-0.456197 -0.819288 0)
(-0.380015 -0.736892 0)
(-0.267913 -0.568368 0)
(-0.146906 -0.345956 0)
(-0.0533915 -0.137538 0)
(-0.00822366 -0.00882438 0)
(0.00147408 0.0261793 0)
(-0.00331335 0.171124 0)
(-0.0359715 0.330199 0)
(-0.0770146 0.429928 0)
(-0.119982 0.517627 0)
(-0.1617 0.594933 0)
(-0.199687 0.654158 0)
(-0.231691 0.689694 0)
(-0.256373 0.699979 0)
(-0.273552 0.687344 0)
(-0.28421 0.656973 0)
(-0.290175 0.615344 0)
(-0.293553 0.568551 0)
(-0.296146 0.521039 0)
(-0.299065 0.475138 0)
(-0.302702 0.431399 0)
(-0.306945 0.389352 0)
(-0.311478 0.348234 0)
(-0.316012 0.307432 0)
(-0.320376 0.266609 0)
(-0.324522 0.225654 0)
(-0.328483 0.184572 0)
(-0.332326 0.143402 0)
(-0.336123 0.102172 0)
(-0.339917 0.0608858 0)
(-0.34372 0.0195229 0)
(-0.34759 -0.0219417 0)
(-0.351591 -0.0635277 0)
(-0.355718 -0.105281 0)
(-0.359956 -0.147231 0)
(-0.3643 -0.189408 0)
(-0.368721 -0.23183 0)
(-0.373159 -0.274488 0)
(-0.377496 -0.317321 0)
(-0.381546 -0.360181 0)
(-0.385058 -0.402804 0)
(-0.387807 -0.444877 0)
(-0.389844 -0.486302 0)
(-0.391922 -0.527808 0)
(-0.395953 -0.571802 0)
(-0.404852 -0.622688 0)
(-0.420774 -0.684985 0)
(-0.44132 -0.757689 0)
(-0.455807 -0.826535 0)
(-0.446217 -0.860702 0)
(-0.395603 -0.821363 0)
(-0.300699 -0.683082 0)
(-0.180725 -0.45943 0)
(-0.0735885 -0.215083 0)
(-0.0135222 -0.0398856 0)
(0.00138955 0.0222441 0)
(-0.0018008 0.189211 0)
(-0.0301492 0.365262 0)
(-0.0671078 0.469811 0)
(-0.1055 0.557505 0)
(-0.142178 0.632117 0)
(-0.174935 0.686451 0)
(-0.201944 0.715552 0)
(-0.222299 0.71886 0)
(-0.236171 0.699802 0)
(-0.244741 0.664464 0)
(-0.249807 0.61977 0)
(-0.253228 0.571701 0)
(-0.256407 0.524162 0)
(-0.26006 0.478801 0)
(-0.264293 0.435626 0)
(-0.268875 0.393894 0)
(-0.273508 0.352807 0)
(-0.277984 0.31185 0)
(-0.282227 0.270807 0)
(-0.286257 0.229655 0)
(-0.29014 0.18844 0)
(-0.293952 0.147206 0)
(-0.297763 0.105971 0)
(-0.301606 0.0647251 0)
(-0.305485 0.0234353 0)
(-0.309441 -0.0179343 0)
(-0.313547 -0.0594071 0)
(-0.317802 -0.101039 0)
(-0.322182 -0.142865 0)
(-0.326689 -0.184927 0)
(-0.331312 -0.227263 0)
(-0.33602 -0.2699 0)
(-0.340746 -0.312837 0)
(-0.345361 -0.356011 0)
(-0.349645 -0.399237 0)
(-0.353291 -0.442178 0)
(-0.356012 -0.484418 0)
(-0.357857 -0.525856 0)
(-0.359792 -0.56759 0)
(-0.364237 -0.613073 0)
(-0.374639 -0.668186 0)
(-0.39268 -0.737598 0)
(-0.413168 -0.815975 0)
(-0.420738 -0.878624 0)
(-0.394511 -0.882424 0)
(-0.321392 -0.784762 0)
(-0.210209 -0.575904 0)
(-0.0953912 -0.306714 0)
(-0.0203454 -0.0816444 0)
(0.00124952 0.0158086 0)
(-0.000107655 0.203253 0)
(-0.0231992 0.395688 0)
(-0.055364 0.505021 0)
(-0.0887337 0.592395 0)
(-0.120229 0.664145 0)
(-0.147934 0.71379 0)
(-0.170423 0.737064 0)
(-0.187139 0.734337 0)
(-0.198481 0.709995 0)
(-0.205666 0.670829 0)
(-0.210332 0.624003 0)
(-0.214011 0.575244 0)
(-0.217727 0.527888 0)
(-0.221885 0.482994 0)
(-0.226426 0.440169 0)
(-0.231094 0.398528 0)
(-0.235655 0.357319 0)
(-0.239988 0.31614 0)
(-0.244088 0.274878 0)
(-0.248014 0.233566 0)
(-0.251841 0.192265 0)
(-0.255641 0.15101 0)
(-0.259475 0.109805 0)
(-0.263374 0.0686266 0)
(-0.267329 0.0274307 0)
(-0.271367 -0.0138274 0)
(-0.275576 -0.0551728 0)
(-0.27996 -0.0966704 0)
(-0.284479 -0.138361 0)
(-0.289139 -0.180291 0)
(-0.293932 -0.222507 0)
(-0.298844 -0.265056 0)
(-0.303838 -0.307976 0)
(-0.308843 -0.351272 0)
(-0.313709 -0.394864 0)
(-0.31818 -0.438513 0)
(-0.321889 -0.481774 0)
(-0.324509 -0.524129 0)
(-0.326177 -0.565593 0)
(-0.328254 -0.608027 0)
(-0.333885 -0.656571 0)
(-0.346883 -0.718759 0)
(-0.367238 -0.797513 0)
(-0.384875 -0.878154 0)
(-0.378994 -0.920073 0)
(-0.329057 -0.8683 0)
(-0.232606 -0.688364 0)
(-0.116645 -0.408441 0)
(-0.0286936 -0.135249 0)
(0.00111636 0.00636143 0)
(0.00165639 0.212694 0)
(-0.015438 0.420745 0)
(-0.0422654 0.535066 0)
(-0.0703266 0.622092 0)
(-0.0966239 0.691096 0)
(-0.119518 0.736525 0)
(-0.137944 0.754788 0)
(-0.151608 0.747072 0)
(-0.161011 0.718552 0)
(-0.167285 0.676536 0)
(-0.171812 0.628271 0)
(-0.175776 0.579166 0)
(-0.179877 0.532035 0)
(-0.184302 0.487462 0)
(-0.18892 0.444792 0)
(-0.193506 0.40309 0)
(-0.197902 0.361684 0)
(-0.20206 0.320276 0)
(-0.206018 0.278828 0)
(-0.20985 0.237404 0)
(-0.21363 0.196061 0)
(-0.217419 0.154821 0)
(-0.22127 0.113674 0)
(-0.225214 0.0725857 0)
(-0.229237 0.0315047 0)
(-0.233348 -0.00962261 0)
(-0.237655 -0.0508212 0)
(-0.242174 -0.0921687 0)
(-0.246844 -0.13371 0)
(-0.251671 -0.175494 0)
(-0.256645 -0.217574 0)
(-0.261757 -0.260004 0)
(-0.266985 -0.302843 0)
(-0.27229 -0.346137 0)
(-0.277584 -0.38989 0)
(-0.282691 -0.433985 0)
(-0.287306 -0.47809 0)
(-0.291002 -0.521614 0)
(-0.293452 -0.563971 0)
(-0.295035 -0.605576 0)
(-0.297794 -0.649756 0)
(-0.305768 -0.704152 0)
(-0.322408 -0.777248 0)
(-0.34374 -0.865531 0)
(-0.352607 -0.937034 0)
(-0.324504 -0.9313 0)
(-0.246401 -0.790946 0)
(-0.135299 -0.515218 0)
(-0.0381772 -0.200472 0)
(0.000967766 -0.00656624 0)
(0.00338542 0.217222 0)
(-0.0071745 0.439847 0)
(-0.0282606 0.559603 0)
(-0.0508418 0.646506 0)
(-0.0720022 0.713116 0)
(-0.0903371 0.755002 0)
(-0.105096 0.769201 0)
(-0.116166 0.757574 0)
(-0.124046 0.725903 0)
(-0.129692 0.681846 0)
(-0.134179 0.632637 0)
(-0.138357 0.583362 0)
(-0.142663 0.536402 0)
(-0.147153 0.491995 0)
(-0.15168 0.449332 0)
(-0.156079 0.407483 0)
(-0.160261 0.36586 0)
(-0.164229 0.32425 0)
(-0.168045 0.282663 0)
(-0.171782 0.241171 0)
(-0.175507 0.199824 0)
(-0.17927 0.158629 0)
(-0.183119 0.117562 0)
(-0.18709 0.0765866 0)
(-0.191166 0.035645 0)
(-0.195334 -0.00532493 0)
(-0.19973 -0.0463509 0)
(-0.20439 -0.087523 0)
(-0.209226 -0.128893 0)
(-0.21424 -0.170514 0)
(-0.219423 -0.212441 0)
(-0.224763 -0.254732 0)
(-0.230243 -0.297455 0)
(-0.235838 -0.340679 0)
(-0.241497 -0.38446 0)
(-0.247109 -0.42878 0)
(-0.252457 -0.473449 0)
(-0.257171 -0.517987 0)
(-0.260777 -0.561626 0)
(-0.263042 -0.603858 0)
(-0.264844 -0.646103 0)
(-0.269273 -0.694306 0)
(-0.281112 -0.759148 0)
(-0.301547 -0.846707 0)
(-0.319314 -0.9377 0)
(-0.309765 -0.973839 0)
(-0.251344 -0.879532 0)
(-0.149872 -0.621915 0)
(-0.0480657 -0.275553 0)
(0.00066369 -0.0234188 0)
(0.00493795 0.21665 0)
(0.00128607 0.452653 0)
(-0.0137489 0.578375 0)
(-0.0307599 0.665624 0)
(-0.0468769 0.730369 0)
(-0.0608789 0.769518 0)
(-0.0722803 0.780675 0)
(-0.0810808 0.766203 0)
(-0.0877029 0.732314 0)
(-0.0928628 0.686879 0)
(-0.0973114 0.637067 0)
(-0.101593 0.587692 0)
(-0.10594 0.54081 0)
(-0.110336 0.496435 0)
(-0.114657 0.453679 0)
(-0.118802 0.411647 0)
(-0.122739 0.369823 0)
(-0.126505 0.328053 0)
(-0.130167 0.286373 0)
(-0.133794 0.244855 0)
(-0.137444 0.203536 0)
(-0.141159 0.162411 0)
(-0.144983 0.121448 0)
(-0.148959 0.0806087 0)
(-0.153072 0.0398365 0)
(-0.157279 -0.000938811 0)
(-0.16175 -0.0417624 0)
(-0.166552 -0.0827238 0)
(-0.171565 -0.123893 0)
(-0.176787 -0.165324 0)
(-0.182206 -0.207074 0)
(-0.187809 -0.249204 0)
(-0.193581 -0.291783 0)
(-0.1995 -0.334894 0)
(-0.205533 -0.378624 0)
(-0.211607 -0.42302 0)
(-0.217576 -0.468013 0)
(-0.223164 -0.513278 0)
(-0.227929 -0.558117 0)
(-0.231393 -0.601618 0)
(-0.233604 -0.643773 0)
(-0.236351 -0.688192 0)
(-0.244075 -0.744935 0)
(-0.261153 -0.826362 0)
(-0.282756 -0.927029 0)
(-0.287483 -0.997849 0)
(-0.248204 -0.951878 0)
(-0.159626 -0.724038 0)
(-0.0575265 -0.357732 0)
(-5.20445e-06 -0.0446213 0)
(0.00615917 0.211207 0)
(0.0095807 0.458721 0)
(0.000945262 0.59129 0)
(-0.0104812 0.679458 0)
(-0.0216543 0.743009 0)
(-0.0314989 0.780306 0)
(-0.0397569 0.789466 0)
(-0.0464896 0.773184 0)
(-0.051994 0.737924 0)
(-0.0567138 0.691661 0)
(-0.0610739 0.641488 0)
(-0.0653433 0.592023 0)
(-0.069598 0.545119 0)
(-0.073785 0.500669 0)
(-0.0778219 0.457762 0)
(-0.0816658 0.415544 0)
(-0.0853318 0.373553 0)
(-0.0888743 0.33167 0)
(-0.0923607 0.289942 0)
(-0.0958527 0.248434 0)
(-0.0993998 0.207172 0)