/*--------------------------------*- C++ -*----------------------------------*\
  =========                 |
  \\      /  F ield         | OpenFOAM: The Open Source CFD Toolbox
   \\    /   O peration     | Website:  https://openfoam.org
    \\  /    A nd           | Version:  7
     \\/     M anipulation  |
\*---------------------------------------------------------------------------*/
FoamFile
{
    version     2.0;
    format      ascii;
    class       volScalarField;
    location    "1250";
    object      p;
}
// * * * * * * * * * * * * * * * * * * * * * * * * * * * * * * * * * * * * * //

dimensions      [0 2 -2 0 0 0 0];

internalField   nonuniform List<scalar> 
2500
(
-4.99324e-08
7.07446e-05
-9.2334e-06
-0.000308106
-0.000782546
-0.00137013
-0.00203068
-0.00275966
-0.00358278
-0.00454071
-0.00567351
-0.00701106
-0.00857028
-0.0103509
-0.0123295
-0.0144518
-0.0166259
-0.01872
-0.0205692
-0.0219914
-0.0228119
-0.0228912
-0.0221542
-0.0206171
-0.0184059
-0.0157468
-0.0129614
-0.010467
-0.00872551
-0.00817466
-0.00914736
-0.0117803
-0.0159611
-0.0213942
-0.0276201
-0.0340771
-0.0402365
-0.0456977
-0.0502293
-0.0537567
-0.0563297
-0.0580833
-0.059192
-0.0598318
-0.0601547
-0.0602768
-0.0602758
-0.0601945
-0.0600552
-0.0599161
-6.93741e-05
3.41519e-06
-8.04291e-05
-0.000376934
-0.000829367
-0.00137357
-0.00197442
-0.00263337
-0.003379
-0.00425163
-0.0052901
-0.00652434
-0.00797505
-0.00964998
-0.0115375
-0.0136008
-0.015769
-0.0179305
-0.0199326
-0.0215914
-0.0227147
-0.0231325
-0.022731
-0.0214861
-0.0194926
-0.0169677
-0.0142485
-0.0117704
-0.0100142
-0.00943664
-0.0103864
-0.0130226
-0.0172611
-0.0227523
-0.028994
-0.035438
-0.0415301
-0.0468294
-0.0510967
-0.0543052
-0.0565725
-0.0580804
-0.0590223
-0.0595709
-0.0598625
-0.0599942
-0.0600281
-0.0599935
-0.059892
-0.0597603
-1.94192e-05
4.92572e-05
-5.76915e-05
-0.000380202
-0.00083265
-0.00133927
-0.0018699
-0.00243732
-0.00308262
-0.00385334
-0.00479359
-0.00594374
-0.00734181
-0.00902226
-0.011005
-0.0132791
-0.015784
-0.0183982
-0.0209392
-0.0231805
-0.0248828
-0.0258325
-0.0258779
-0.0249677
-0.0231945
-0.0207856
-0.018078
-0.0155054
-0.0135604
-0.0127234
-0.0133763
-0.0157171
-0.0197009
-0.0250259
-0.0311833
-0.0375516
-0.0435532
-0.0487457
-0.0528488
-0.0557969
-0.0577203
-0.0588646
-0.0594832
-0.059781
-0.0599025
-0.0599374
-0.0599322
-0.0598966
-0.0598007
-0.0596564
0.000227783
0.000265827
0.000101353
-0.000279986
-0.000755817
-0.00123717
-0.0017031
-0.00218571
-0.00274607
-0.00345523
-0.00438658
-0.0056196
-0.00723914
-0.00932218
-0.0119116
-0.0149873
-0.0184461
-0.0220999
-0.0256925
-0.0289333
-0.0315382
-0.0332675
-0.0339563
-0.033541
-0.0320937
-0.0298172
-0.0270235
-0.0241337
-0.0216428
-0.0200578
-0.019816
-0.0211968
-0.0242493
-0.0287603
-0.0342796
-0.0402038
-0.0459107
-0.0508812
-0.0548201
-0.0576375
-0.0593847
-0.0602734
-0.0605849
-0.0605792
-0.0604407
-0.0602791
-0.0601449
-0.060039
-0.059909
-0.0597441
0.000707095
0.00067696
0.000417746
-4.44591e-05
-0.00055569
-0.00102961
-0.00146071
-0.00190898
-0.00247512
-0.00328109
-0.00446391
-0.00617143
-0.00854293
-0.011674
-0.0155788
-0.0201668
-0.0252414
-0.0305218
-0.0356773
-0.0403672
-0.0442771
-0.0471491
-0.0488048
-0.0491604
-0.0482456
-0.0462054
-0.0433049
-0.0399295
-0.0365516
-0.0336862
-0.0318254
-0.0313572
-0.0324837
-0.0351614
-0.03909
-0.0437644
-0.0485844
-0.0529893
-0.0565791
-0.0591666
-0.0607855
-0.0615921
-0.0617776
-0.0615924
-0.0612556
-0.0609104
-0.0606305
-0.0604289
-0.0602526
-0.0600757
0.00146228
0.00132823
0.000948824
0.000397183
-0.000168998
-0.000675543
-0.00114713
-0.00169659
-0.0024932
-0.00374311
-0.00567198
-0.00849387
-0.0123645
-0.0173348
-0.0233249
-0.0301268
-0.0374312
-0.0448663
-0.0520389
-0.0585693
-0.0641201
-0.0684201
-0.0712821
-0.0726077
-0.0723945
-0.0707262
-0.0678013
-0.0639412
-0.0595532
-0.0551126
-0.0511223
-0.0480537
-0.0462726
-0.0459652
-0.0470853
-0.0493495
-0.0522949
-0.0553922
-0.0581741
-0.0603309
-0.0617423
-0.0624569
-0.0626388
-0.0624507
-0.0620642
-0.0616385
-0.0612728
-0.0610044
-0.060799
-0.0606276
0.0025318
0.00226897
0.00176016
0.00110862
0.000451662
-0.000167617
-0.000837355
-0.00175322
-0.00318468
-0.00544184
-0.00882666
-0.0135684
-0.0197638
-0.0273463
-0.0360909
-0.0456495
-0.0555975
-0.0654819
-0.0748606
-0.0833338
-0.090566
-0.0963015
-0.100369
-0.102676
-0.103217
-0.102045
-0.0992849
-0.0951714
-0.0900065
-0.0841635
-0.0780745
-0.0722059
-0.0670152
-0.0628918
-0.0600877
-0.0586599
-0.05845
-0.0591195
-0.0602408
-0.061412
-0.0623453
-0.0629013
-0.0630788
-0.0629657
-0.0626661
-0.0622911
-0.0619405
-0.0616718
-0.0614761
-0.0613309
0.00392203
0.00352307
0.00288402
0.0021103
0.00129501
0.000410409
-0.000728808
-0.00243181
-0.00508367
-0.00907844
-0.0147317
-0.0221994
-0.0314349
-0.0421936
-0.0540762
-0.0665894
-0.0792062
-0.0914166
-0.102766
-0.112876
-0.12146
-0.12832
-0.13333
-0.136428
-0.137632
-0.137003
-0.134613
-0.130608
-0.125169
-0.118529
-0.110976
-0.10286
-0.0945926
-0.0866312
-0.0794362
-0.0734081
-0.0688111
-0.0657087
-0.0639437
-0.0631839
-0.0630251
-0.0631066
-0.0631835
-0.0631493
-0.063
-0.0627771
-0.0625433
-0.0623524
-0.0622123
-0.0621116
0.00557821
0.00505003
0.00427576
0.00333735
0.00223919
0.000843044
-0.00116327
-0.00421572
-0.00879165
-0.0152993
-0.0239685
-0.0347844
-0.0474858
-0.0616148
-0.0765939
-0.0918062
-0.106664
-0.120655
-0.133371
-0.144512
-0.153884
-0.161375
-0.166927
-0.17052
-0.172201
-0.172065
-0.170158
-0.166556
-0.161347
-0.154632
-0.146535
-0.13723
-0.126961
-0.116077
-0.105041
-0.0944245
-0.0848473
-0.0768681
-0.0708485
-0.0668396
-0.064563
-0.0635209
-0.0631795
-0.0631244
-0.0631251
-0.0631056
-0.0630609
-0.0630141
-0.0629691
-0.0629241
0.0073499
0.0067067
0.00578605
0.004601
0.00302276
0.000772449
-0.002602
-0.00764143
-0.0148454
-0.0245309
-0.0367342
-0.0511893
-0.0673805
-0.0846368
-0.102237
-0.119503
-0.135858
-0.150865
-0.164221
-0.175746
-0.185353
-0.193022
-0.19876
-0.202583
-0.204556
-0.204801
-0.203357
-0.200266
-0.195559
-0.189256
-0.181367
-0.171907
-0.160923
-0.148548
-0.135055
-0.120922
-0.106857
-0.0937547
-0.0825357
-0.0739074
-0.0681198
-0.0648722
-0.0634634
-0.063102
-0.0631772
-0.0633588
-0.0635389
-0.0636769
-0.063752
-0.0637666
0.0089791
0.00823987
0.00713735
0.00557268
0.00324872
-0.000267532
-0.00555143
-0.0131852
-0.0235865
-0.036868
-0.0527842
-0.0707745
-0.0900736
-0.109845
-0.129304
-0.1478
-0.164857
-0.180172
-0.193582
-0.20503
-0.214523
-0.222106
-0.22783
-0.23173
-0.233873
-0.234386
-0.2333
-0.230649
-0.226448
-0.22069
-0.213338
-0.204323
-0.193559
-0.18098
-0.166601
-0.150621
-0.133534
-0.116208
-0.099852
-0.0858031
-0.0751328
-0.068235
-0.0646655
-0.0633969
-0.0633244
-0.0636676
-0.0640664
-0.064402
-0.0646071
-0.0646819
0.0101123
0.00928195
0.00793043
0.00580886
0.00243255
-0.00277481
-0.0104611
-0.0211552
-0.0350802
-0.0520513
-0.0714934
-0.0925579
-0.114287
-0.13577
-0.156263
-0.175235
-0.192372
-0.207529
-0.220677
-0.231851
-0.241118
-0.248552
-0.254218
-0.258155
-0.260415
-0.26111
-0.260264
-0.25791
-0.254068
-0.248736
-0.241882
-0.233426
-0.223244
-0.211169
-0.197033
-0.180745
-0.162428
-0.142597
-0.122303
-0.103124
-0.0868565
-0.0749151
-0.067717
-0.0644987
-0.0637825
-0.0641488
-0.0647443
-0.0652722
-0.0656093
-0.0657474
0.0103208
0.00938505
0.00769342
0.00481608
8.52746e-05
-0.00718175
-0.0176279
-0.0316241
-0.0491038
-0.069531
-0.0920049
-0.115447
-0.138805
-0.161207
-0.182041
-0.200961
-0.217825
-0.232631
-0.245445
-0.256352
-0.26544
-0.272782
-0.278434
-0.282427
-0.284793
-0.285625
-0.284933
-0.28275
-0.279103
-0.274005
-0.267446
-0.259379
-0.249706
-0.238263
-0.224823
-0.209131
-0.190996
-0.170471
-0.148107
-0.12519
-0.103734
-0.0860308
-0.073759
-0.0671434
-0.0648665
-0.0649113
-0.0656559
-0.066368
-0.0668455
-0.0670588
0.00915978
0.00809331
0.00595981
0.00213945
-0.00419216
-0.013767
-0.0271348
-0.0444168
-0.0651975
-0.0885854
-0.113406
-0.13845
-0.16268
-0.185362
-0.206077
-0.224668
-0.241146
-0.255604
-0.268154
-0.278896
-0.287905
-0.295239
-0.300937
-0.305017
-0.307492
-0.308438
-0.307855
-0.305771
-0.302214
-0.297206
-0.290756
-0.282853
-0.273448
-0.262437
-0.249634
-0.234766
-0.2175
-0.19755
-0.174907
-0.150202
-0.125039
-0.101974
-0.0838054
-0.0722822
-0.0670954
-0.0661208
-0.066852
-0.0677565
-0.0683986
-0.0687125
0.00625279
0.00502317
0.00235555
-0.00254956
-0.0106301
-0.0226006
-0.0388369
-0.059148
-0.0827544
-0.10845
-0.134875
-0.160798
-0.185299
-0.207836
-0.228196
-0.246382
-0.262507
-0.27671
-0.289109
-0.299788
-0.308803
-0.316189
-0.321969
-0.326148
-0.328728
-0.329775
-0.329283
-0.327273
-0.323767
-0.318787
-0.312349
-0.304464
-0.295125
-0.284288
-0.271852
-0.25762
-0.241279
-0.222418
-0.200655
-0.175942
-0.14907
-0.122111
-0.0982915
-0.0808416
-0.0712097
-0.0680884
-0.0684052
-0.0694989
-0.0703418
-0.0707984
0.00136073
-6.26656e-05
-0.00332809
-0.0093896
-0.0192466
-0.0335329
-0.0523904
-0.0752912
-0.101117
-0.128422
-0.155763
-0.181984
-0.206344
-0.22851
-0.248444
-0.266261
-0.282123
-0.296174
-0.308512
-0.319196
-0.328257
-0.335714
-0.341578
-0.345848
-0.348521
-0.349654
-0.349245
-0.347305
-0.343851
-0.338897
-0.332459
-0.324551
-0.315184
-0.304358
-0.292042
-0.278143
-0.262457
-0.244625
-0.224147
-0.200541
-0.173769
-0.144928
-0.116787
-0.093359
-0.0780374
-0.0713386
-0.0704803
-0.0716606
-0.0727517
-0.0734074
-0.00556932
-0.00720761
-0.011094
-0.0183039
-0.0298456
-0.046222
-0.0673104
-0.0922558
-0.119659
-0.147921
-0.175614
-0.20172
-0.225702
-0.247414
-0.266944
-0.284468
-0.300156
-0.314128
-0.326454
-0.337165
-0.346275
-0.353791
-0.359722
-0.364063
-0.366808
-0.368012
-0.367678
-0.365808
-0.362415
-0.357509
-0.351098
-0.343192
-0.333803
-0.322943
-0.310624
-0.296832
-0.281483
-0.264358
-0.245037
-0.222908
-0.197389
-0.168553
-0.138064
-0.109691
-0.0882123
-0.0765478
-0.073396
-0.0743441
-0.0757423
-0.0766458
-0.0143897
-0.0162497
-0.0207369
-0.0290138
-0.0420503
-0.0601882
-0.0830376
-0.109455
-0.137834
-0.16651
-0.194136
-0.219871
-0.243369
-0.264628
-0.283814
-0.301119
-0.316692
-0.330622
-0.342947
-0.353679
-0.362819
-0.370371
-0.376343
-0.380733
-0.383532
-0.384791
-0.384521
-0.382718
-0.379393
-0.374551
-0.368197
-0.360335
-0.350969
-0.340112
-0.327782
-0.314004
-0.298781
-0.282037
-0.263521
-0.24272
-0.218871
-0.191325
-0.160475
-0.128974
-0.101893
-0.0843603
-0.0776122
-0.0777101
-0.0794373
-0.0806258
-0.0247724
-0.0268455
-0.0318759
-0.0410823
-0.055359
-0.0748769
-0.0990008
-0.126355
-0.155199
-0.183875
-0.211161
-0.236393
-0.259383
-0.28023
-0.299132
-0.31627
-0.331759
-0.345654
-0.357969
-0.368702
-0.377849
-0.385414
-0.391406
-0.395825
-0.398664
-0.399964
-0.399748
-0.398005
-0.394745
-0.389974
-0.383693
-0.375905
-0.366609
-0.355809
-0.343518
-0.329767
-0.314597
-0.298028
-0.279979
-0.26014
-0.237844
-0.212147
-0.18244
-0.149859
-0.118632
-0.0951529
-0.0836347
-0.0819891
-0.0839424
-0.0854601
-0.0362559
-0.0385184
-0.0440077
-0.0539728
-0.0692068
-0.0897177
-0.114663
-0.142496
-0.17141
-0.199803
-0.226593
-0.251275
-0.273781
-0.294266
-0.312932
-0.329933
-0.345346
-0.359198
-0.371485
-0.382199
-0.391335
-0.398896
-0.404894
-0.40933
-0.412197
-0.413529
-0.413356
-0.411664
-0.408464
-0.40376
-0.397556
-0.389854
-0.380653
-0.369953
-0.357759
-0.344091
-0.328994
-0.31253
-0.294735
-0.275501
-0.254398
-0.230537
-0.202783
-0.170884
-0.137462
-0.108869
-0.0918916
-0.0874743
-0.089348
-0.0912683
-0.0483045
-0.0507199
-0.0565687
-0.0671114
-0.0830229
-0.10417
-0.12955
-0.157504
-0.186209
-0.214149
-0.240376
-0.264515
-0.28658
-0.306752
-0.325217
-0.342093
-0.357427
-0.371224
-0.383469
-0.39415
-0.403262
-0.41081
-0.416804
-0.421251
-0.424138
-0.425492
-0.425355
-0.423706
-0.420556
-0.415912
-0.40978
-0.402164
-0.393065
-0.382484
-0.370422
-0.356891
-0.341923
-0.325583
-0.307961
-0.289096
-0.268809
-0.246465
-0.220857
-0.190808
-0.157138
-0.124981
-0.102581
-0.0944456
-0.0957467
-0.0981627
-0.0603679
-0.0628893
-0.0689936
-0.0799395
-0.0962749
-0.117756
-0.143263
-0.17108
-0.199403
-0.226809
-0.252468
-0.276103
-0.297778
-0.317678
-0.335963
-0.352721
-0.367972
-0.381704
-0.393897
-0.404538
-0.413622
-0.421152
-0.427139
-0.43159
-0.434494
-0.435863
-0.435756
-0.434141
-0.431032
-0.426439
-0.420369
-0.412829
-0.403827
-0.393366
-0.381449
-0.368084
-0.353294
-0.337129
-0.319688
-0.301085
-0.281339
-0.260121
-0.236452
-0.208782
-0.176427
-0.14259
-0.115555
-0.103095
-0.103247
-0.1062
-0.0719314
-0.0745079
-0.0807627
-0.0919545
-0.108498
-0.13007
-0.155482
-0.182995
-0.210849
-0.237705
-0.262832
-0.286018
-0.307355
-0.327017
-0.34514
-0.361784
-0.376949
-0.390613
-0.402752
-0.413352
-0.422408
-0.429921
-0.435901
-0.440354
-0.443271
-0.444649
-0.444565
-0.442977
-0.439901
-0.435348
-0.429328
-0.421853
-0.412933
-0.40258
-0.390803
-0.37761
-0.363021
-0.347074
-0.329854
-0.311499
-0.292144
-0.271726
-0.249623
-0.224356
-0.194305
-0.160602
-0.130298
-0.113435
-0.111905
-0.115319
-0.0825763
-0.0851137
-0.0914352
-0.102735
-0.119311
-0.140792
-0.165958
-0.193075
-0.220435
-0.246774
-0.271428
-0.294229
-0.315276
-0.334733
-0.352711
-0.369248
-0.384331
-0.397931
-0.41002
-0.420585
-0.429617
-0.437117
-0.44309
-0.447546
-0.450473
-0.451857
-0.451791
-0.450222
-0.44717
-0.442645
-0.436661
-0.429234
-0.420379
-0.410116
-0.398459
-0.385426
-0.371036
-0.355325
-0.338361
-0.320278
-0.30126
-0.28143
-0.260516
-0.237381
-0.210059
-0.177932
-0.146002
-0.125222
-0.121623
-0.125281
-0.0919849
-0.0943296
-0.100651
-0.111951
-0.128421
-0.149681
-0.174506
-0.201193
-0.228081
-0.253961
-0.278216
-0.300698
-0.321506
-0.340789
-0.35864
-0.375082
-0.390093
-0.403637
-0.415688
-0.426226
-0.435244
-0.442738
-0.448711
-0.453169
-0.456104
-0.457496
-0.45744
-0.455885
-0.452845
-0.448335
-0.442371
-0.434972
-0.426161
-0.415962
-0.404399
-0.391499
-0.377289
-0.361804
-0.345107
-0.327319
-0.308634
-0.289277
-0.269258
-0.247869
-0.223262
-0.193646
-0.161694
-0.137928
-0.132058
-0.135661
-0.0999089
-0.101925
-0.108139
-0.119362
-0.135624
-0.156566
-0.180999
-0.207259
-0.233724
-0.259222
-0.283157
-0.305387
-0.326006
-0.345147
-0.362893
-0.379256
-0.39421
-0.407715
-0.419742
-0.430269
-0.439285
-0.446784
-0.452763
-0.457229
-0.460173
-0.461576
-0.461525
-0.459978
-0.45694
-0.452431
-0.446468
-0.439075
-0.430279
-0.420113
-0.40861
-0.395806
-0.381737
-0.366448
-0.350002
-0.33251
-0.314161
-0.295225
-0.275901
-0.255881
-0.23371
-0.207037
-0.176394
-0.150803
-0.142666
-0.145921
-0.106182
-0.107782
-0.113745
-0.124816
-0.1408
-0.161365
-0.185381
-0.211231
-0.237331
-0.262526
-0.28622
-0.308264
-0.328738
-0.347771
-0.365436
-0.381742
-0.396659
-0.410146
-0.422168
-0.432703
-0.441734
-0.449251
-0.455249
-0.459729
-0.462685
-0.464099
-0.464051
-0.462509
-0.459463
-0.454941
-0.448961
-0.441549
-0.432738
-0.422568
-0.411083
-0.398328
-0.384353
-0.36921
-0.352972
-0.335747
-0.317721
-0.299175
-0.280419
-0.26146
-0.241326
-0.217633
-0.189231
-0.163002
-0.152812
-0.15549
-0.110737
-0.111863
-0.117427
-0.128251
-0.143898
-0.164033
-0.187606
-0.213064
-0.238857
-0.26383
-0.287369
-0.309301
-0.329691
-0.348655
-0.366268
-0.382542
-0.397446
-0.410938
-0.422978
-0.43354
-0.442603
-0.450152
-0.456178
-0.460675
-0.463639
-0.465058
-0.465006
-0.463468
-0.460406
-0.455856
-0.44984
-0.442384
-0.433527
-0.423317
-0.411806
-0.399051
-0.385111
-0.370052
-0.353958
-0.336945
-0.319199
-0.301005
-0.282729
-0.264597
-0.246096
-0.225152
-0.199517
-0.173705
-0.161863
-0.163826
-0.113601
-0.114221
-0.119251
-0.129716
-0.14496
-0.16461
-0.187702
-0.212763
-0.238277
-0.263084
-0.286535
-0.308419
-0.328776
-0.347717
-0.365317
-0.381593
-0.396517
-0.410046
-0.422138
-0.432761
-0.441889
-0.449502
-0.455587
-0.460134
-0.463135
-0.464576
-0.4645
-0.462931
-0.45982
-0.455203
-0.449109
-0.44157
-0.432632
-0.422342
-0.410759
-0.397949
-0.383982
-0.368937
-0.352911
-0.336033
-0.318496
-0.300593
-0.282721
-0.265239
-0.248012
-0.229447
-0.206757
-0.182203
-0.169248
-0.170449
-0.114883
-0.115
-0.119373
-0.12934
-0.144095
-0.163189
-0.185746
-0.210379
-0.235619
-0.260293
-0.283706
-0.305598
-0.325975
-0.344937
-0.36256
-0.378869
-0.393844
-0.407441
-0.419615
-0.430328
-0.439548
-0.447251
-0.453416
-0.458029
-0.461081
-0.462561
-0.462487
-0.460898
-0.457737
-0.453044
-0.446853
-0.439196
-0.430119
-0.419681
-0.407951
-0.395007
-0.380935
-0.365826
-0.349783
-0.332948
-0.315529
-0.297832
-0.280276
-0.263303
-0.247054
-0.230448
-0.21063
-0.187923
-0.174471
-0.17494
-0.114758
-0.114409
-0.118028
-0.127324
-0.141467
-0.159911
-0.181845
-0.205987
-0.230923
-0.255468
-0.278875
-0.300821
-0.321269
-0.340297
-0.357985
-0.374365
-0.389426
-0.403126
-0.415417
-0.426256
-0.435602
-0.443424
-0.449697
-0.4544
-0.45752
-0.459046
-0.458979
-0.457369
-0.454149
-0.449364
-0.443051
-0.435246
-0.425997
-0.41537
-0.403438
-0.390287
-0.376013
-0.360721
-0.344539
-0.327633
-0.310225
-0.292629
-0.275287
-0.258694
-0.243184
-0.228129
-0.210945
-0.190436
-0.177105
-0.176934
-0.113457
-0.112712
-0.115516
-0.123945
-0.137308
-0.154967
-0.176153
-0.199692
-0.224243
-0.248623
-0.272025
-0.294056
-0.314618
-0.333761
-0.35156
-0.368057
-0.383245
-0.39709
-0.40954
-0.420545
-0.430058
-0.438038
-0.444451
-0.449273
-0.452482
-0.454066
-0.454012
-0.452382
-0.449099
-0.444205
-0.437746
-0.429758
-0.420294
-0.40942
-0.397221
-0.383787
-0.369225
-0.353654
-0.337216
-0.320095
-0.302543
-0.284911
-0.267664
-0.251324
-0.236354
-0.222482
-0.207602
-0.189431
-0.176781
-0.176107
-0.111242
-0.1102
-0.112174
-0.11954
-0.131905
-0.1486
-0.168866
-0.191637
-0.215665
-0.239785
-0.263143
-0.285261
-0.305971
-0.325279
-0.343243
-0.359908
-0.375275
-0.389314
-0.401971
-0.41319
-0.422915
-0.431095
-0.437689
-0.442663
-0.445989
-0.44765
-0.447628
-0.445975
-0.442628
-0.437616
-0.430988
-0.422784
-0.413059
-0.401883
-0.389346
-0.375545
-0.360596
-0.34463
-0.327809
-0.310338
-0.292499
-0.274673
-0.257365
-0.241132
-0.226522
-0.213509
-0.200563
-0.184704
-0.173177
-0.172162
-0.108392
-0.107167
-0.108349
-0.114484
-0.125602
-0.141098
-0.160222
-0.182003
-0.205303
-0.229008
-0.252226
-0.2744
-0.295274
-0.314791
-0.33298
-0.349877
-0.365485
-0.379777
-0.392699
-0.404188
-0.414178
-0.42261
-0.42943
-0.434597
-0.438074
-0.439839
-0.43987
-0.438202
-0.434793
-0.429655
-0.422838
-0.414387
-0.404358
-0.392824
-0.379876
-0.36562
-0.350178
-0.333697
-0.316353
-0.29838
-0.280092
-0.261911
-0.244386
-0.228112
-0.213684
-0.20123
-0.189837
-0.176133
-0.166007
-0.164816
-0.105176
-0.103882
-0.104359
-0.10916
-0.118779
-0.132794
-0.150498
-0.171008
-0.19331
-0.216369
-0.239288
-0.261436
-0.282462
-0.302226
-0.320705
-0.33791
-0.353838
-0.368459
-0.381717
-0.393543
-0.403863
-0.412605
-0.419707
-0.425115
-0.428785
-0.430687
-0.430795
-0.429129
-0.425664
-0.420397
-0.413376
-0.40465
-0.394275
-0.382326
-0.368894
-0.354092
-0.338049
-0.320923
-0.302913
-0.284278
-0.265372
-0.246663
-0.228753
-0.212285
-0.197896
-0.185719
-0.175484
-0.163678
-0.155024
-0.153799
-0.101828
-0.100561
-0.100468
-0.103923
-0.111829
-0.124055
-0.140007
-0.158905
-0.17987
-0.201977
-0.224363
-0.246342
-0.267467
-0.287498
-0.306333
-0.323937
-0.340282
-0.355329
-0.369015
-0.381263
-0.39199
-0.401114
-0.408562
-0.414269
-0.418182
-0.420262
-0.420479
-0.418838
-0.41533
-0.409935
-0.402699
-0.393674
-0.382914
-0.370494
-0.356507
-0.341067
-0.324311
-0.306411
-0.287586
-0.268129
-0.248435
-0.229024
-0.210556
-0.193728
-0.17923
-0.167123
-0.157632
-0.147382
-0.14004
-0.138852
-0.0985347
-0.0973635
-0.0968622
-0.0990644
-0.10513
-0.115267
-0.129093
-0.145978
-0.165201
-0.185977
-0.207515
-0.229111
-0.250229
-0.270515
-0.289765
-0.307867
-0.324749
-0.340343
-0.354573
-0.36735
-0.378583
-0.388177
-0.396049
-0.402123
-0.406339
-0.408647
-0.409013
-0.407427
-0.403894
-0.398378
-0.390922
-0.381578
-0.370398
-0.357456
-0.342842
-0.326675
-0.309099
-0.290298
-0.270516
-0.25008
-0.229433
-0.209155
-0.189964
-0.172611
-0.157824
-0.145649
-0.13648
-0.127366
-0.120954
-0.119746
-0.0954258
-0.0943907
-0.0936506
-0.0947862
-0.0990037
-0.106809
-0.118118
-0.132537
-0.149549
-0.168547
-0.18885
-0.209774
-0.230713
-0.251198
-0.2709
-0.289601
-0.307154
-0.323443
-0.338362
-0.351805
-0.363664
-0.373837
-0.382228
-0.388754
-0.393342
-0.395938
-0.396502
-0.395009
-0.391476
-0.385853
-0.378178
-0.3685
-0.356872
-0.343361
-0.328058
-0.311082
-0.292586
-0.272768
-0.251898
-0.230342
-0.208596
-0.1873
-0.167234
-0.149198
-0.133945
-0.12153
-0.112294
-0.103814
-0.0977547
-0.0962442
-0.0925791
-0.0916985
-0.090873
-0.0911878
-0.0936761
-0.0990079
-0.107433
-0.118903
-0.133187
-0.149902
-0.168521
-0.188414
-0.208937
-0.22951
-0.249665
-0.269052
-0.287416
-0.304566
-0.320345
-0.334616
-0.347253
-0.358138
-0.367165
-0.374241
-0.379288
-0.382244
-0.383062
-0.381713
-0.378209
-0.372502
-0.364616
-0.354599
-0.342501
-0.328385
-0.312342
-0.294491
-0.274993
-0.254064
-0.232002
-0.209214
-0.18625
-0.163811
-0.142737
-0.123865
-0.107967
-0.0950566
-0.0854286
-0.076955
-0.0704942
-0.0680061
-0.090027
-0.0893092
-0.088521
-0.0882736
-0.0892484
-0.0920882
-0.0973386
-0.105385
-0.116396
-0.13029
-0.146735
-0.165193
-0.185007
-0.205499
-0.22606
-0.246187
-0.265488
-0.283668
-0.300494
-0.31578
-0.329368
-0.341122
-0.350924
-0.35867
-0.364278
-0.367678
-0.368822
-0.367673
-0.364238
-0.358478
-0.350401
-0.34005
-0.327475
-0.312737
-0.295924
-0.277158
-0.256609
-0.234512
-0.211193
-0.187103
-0.162842
-0.13917
-0.116973
-0.0971172
-0.0803646
-0.0666496
-0.0563141
-0.0470573
-0.0393742
-0.0346311
-0.0877608
-0.0872187
-0.0865581
-0.0859723
-0.0856819
-0.086117
-0.0880144
-0.0922332
-0.0994533
-0.109992
-0.12377
-0.140372
-0.159149
-0.179347
-0.200216
-0.22109
-0.241421
-0.26078
-0.278834
-0.295327
-0.310055
-0.322853
-0.333584
-0.342138
-0.348422
-0.352366
-0.353917
-0.353039
-0.349726
-0.343957
-0.335723
-0.325062
-0.312026
-0.296674
-0.279095
-0.259415
-0.237814
-0.214545
-0.189964
-0.164558
-0.138973
-0.114011
-0.0905885
-0.069575
-0.0517066
-0.0368386
-0.0254199
-0.01445
-0.0050329
0.00393971
-0.0857237
-0.0853874
-0.0849243
-0.0841518
-0.0827973
-0.0809644
-0.0794584
-0.079582
-0.0825964
-0.0893143
-0.0999791
-0.114332
-0.131755
-0.151425
-0.172464
-0.194041
-0.215441
-0.236085
-0.255517
-0.273391
-0.289438
-0.303454
-0.315276
-0.324781
-0.331869
-0.336467
-0.338521
-0.337993
-0.334871
-0.329152
-0.320815
-0.309894
-0.296444
-0.280527
-0.262234
-0.241697
-0.219107
-0.194735
-0.16896
-0.142298
-0.115419
-0.0891393
-0.0643702
-0.0419558
-0.0225852
-0.00607187
0.00701879
0.0207671
0.0316871
0.0475174
-0.0837949
-0.0837193
-0.0835118
-0.0826081
-0.0802758
-0.0762899
-0.0714435
-0.0673996
-0.0659941
-0.0685908
-0.0758185
-0.0876172
-0.103417
-0.122343
-0.143394
-0.165587
-0.188038
-0.21001
-0.230913
-0.250292
-0.267802
-0.283183
-0.296243
-0.306835
-0.314853
-0.320218
-0.322875
-0.322789
-0.319944
-0.314351
-0.30599
-0.294893
-0.281116
-0.264731
-0.245835
-0.224568
-0.201132
-0.175813
-0.149
-0.121217
-0.0931262
-0.065516
-0.0392397
-0.0150625
0.00641564
0.0254383
0.0414096
0.0593917
0.0717273
0.0981861
-0.0817798
-0.0820316
-0.0821127
-0.0810229
-0.0776568
-0.07157
-0.0635369
-0.0554839
-0.0497338
-0.0481793
-0.0518618
-0.0609564
-0.0749688
-0.0929869
-0.113906
-0.1366
-0.160029
-0.183302
-0.205691
-0.226627
-0.245678
-0.262522
-0.276922
-0.288709
-0.297761
-0.303994
-0.307353
-0.307805
-0.305336
-0.299961
-0.291681
-0.280525
-0.266556
-0.249857
-0.230534
-0.208739
-0.184683
-0.158655
-0.13104
-0.102334
-0.0731489
-0.0441854
-0.0161758
0.0102625
0.0346954
0.0575531
0.0784445
0.103215
0.120214
0.163259
-0.0794648
-0.0800723
-0.0804392
-0.0789988
-0.0743997
-0.06619
-0.0552119
-0.0435534
-0.0338739
-0.0284902
-0.0288219
-0.0352912
-0.0475063
-0.0645451
-0.0852233
-0.108295
-0.132585
-0.15706
-0.180866
-0.203322
-0.223905
-0.242228
-0.258005
-0.271037
-0.281185
-0.288358
-0.292499
-0.293578
-0.291586
-0.286538
-0.27846
-0.26739
-0.253404
-0.236595
-0.217083
-0.195026
-0.170639
-0.144199
-0.116059
-0.0866501
-0.0564779
-0.0260888
0.00398299
0.0333507
0.0618337
0.0901816
0.1184
0.153581
0.183359
0.248047
-0.076954
-0.0778027
-0.0783003
-0.0762547
-0.0702052
-0.0597778
-0.046111
-0.031456
-0.0185809
-0.0100466
-0.00755861
-0.0117536
-0.0223535
-0.0384582
-0.0588416
-0.0821743
-0.107173
-0.132693
-0.157765
-0.18161
-0.203623
-0.223349
-0.240456
-0.254711
-0.265955
-0.274089
-0.279054
-0.280824
-0.279398
-0.274796
-0.267054
-0.256222
-0.242398
-0.225698
-0.20625
-0.184212
-0.159785
-0.133218
-0.104803
-0.0748688
-0.0437598
-0.0117919
0.0208066
0.0540292
0.0881204
0.124272
0.162797
0.212452
0.259955
0.338524
-0.0755328
-0.0762306
-0.0763583
-0.0731337
-0.0652536
-0.0526019
-0.0365236
-0.0195285
-0.00439378
0.00637938
0.0108931
0.00836633
-0.00100006
-0.0163446
-0.0364433
-0.0599294
-0.0854541
-0.111791
-0.137891
-0.162893
-0.186124
-0.207071
-0.225358
-0.240721
-0.252981
-0.262028
-0.267801
-0.270277
-0.269464
-0.265394
-0.258123
-0.247694
-0.234192
-0.217764
-0.198559
-0.176734
-0.152466
-0.125954
-0.0974107
-0.0670367
-0.0349724
-0.00122495
0.0344371
0.0726804
0.114672
0.162743
0.21796
0.289085
0.349451
0.424424
-0.0797064
-0.0790067
-0.0773975
-0.0717875
-0.0612404
-0.0460022
-0.0276773
-0.00886755
0.00764721
0.0196553
0.025392
0.0238566
0.0152364
0.000370603
-0.0195414
-0.0431311
-0.0690218
-0.0959435
-0.122794
-0.148661
-0.172819
-0.194711
-0.213928
-0.230179
-0.24327
-0.25308
-0.259543
-0.26264
-0.262383
-0.258812
-0.251989
-0.242005
-0.228937
-0.212866
-0.193949
-0.172365
-0.148277
-0.121838
-0.0931793
-0.0623639
-0.0293071
0.00635605
0.0454746
0.0897628
0.142139
0.207827
0.291621
0.403542
0.495806
0.603388
-0.103139
-0.0953179
-0.0868717
-0.076083
-0.0617196
-0.0433884
-0.0227341
-0.002335
0.015361
0.0281432
0.0343222
0.0332109
0.0250007
0.010482
-0.00919134
-0.0326851
-0.0586382
-0.0857765
-0.112979
-0.139304
-0.163994
-0.186464
-0.206276
-0.223118
-0.236779
-0.247128
-0.254093
-0.257653
-0.257819
-0.254635
-0.248165
-0.238495
-0.225723
-0.20996
-0.191329
-0.169971
-0.146033
-0.119642
-0.0908604
-0.0596252
-0.0256347
0.0118548
0.0543587
0.104797
0.1683
0.254359
0.375652
0.5557
0.767667
1.10783
-0.189973
-0.112217
-0.0806296
-0.0714006
-0.0581228
-0.0387494
-0.0170523
0.00395402
0.0217605
0.0341919
0.0398431
0.0382311
0.0296282
0.0148538
-0.0049454
-0.0284715
-0.0544094
-0.0815239
-0.10872
-0.135072
-0.159828
-0.182398
-0.202341
-0.219338
-0.23317
-0.243701
-0.250854
-0.254604
-0.254961
-0.251966
-0.245684
-0.236199
-0.22361
-0.208027
-0.189571
-0.168373
-0.144566
-0.118248
-0.0894235
-0.0579334
-0.0233112
0.0154668
0.0603931
0.115211
0.186478
0.286539
0.435286
0.68035
1.07935
1.82852
)
;

boundaryField
{
    movingWall
    {
        type            zeroGradient;
    }
    fixedWalls
    {
        type            zeroGradient;
    }
    frontAndBack
    {
        type            empty;
    }
}


// ************************************************************************* //
