/*--------------------------------*- C++ -*----------------------------------*\
  =========                 |
  \\      /  F ield         | OpenFOAM: The Open Source CFD Toolbox
   \\    /   O peration     | Website:  https://openfoam.org
    \\  /    A nd           | Version:  7
     \\/     M anipulation  |
\*---------------------------------------------------------------------------*/
FoamFile
{
    version     2.0;
    format      ascii;
    class       surfaceScalarField;
    location    "1250";
    object      phi;
}
// * * * * * * * * * * * * * * * * * * * * * * * * * * * * * * * * * * * * * //

dimensions      [0 3 -1 0 0 0 0];

internalField   nonuniform List<scalar> 
4900
(
1.70254e-06
-1.70125e-06
6.22414e-06
-4.52157e-06
1.17166e-05
-5.49265e-06
1.65026e-05
-4.78623e-06
1.97499e-05
-3.2475e-06
2.13889e-05
-1.63908e-06
2.17672e-05
-3.78452e-07
2.12615e-05
5.05617e-07
2.00149e-05
1.24651e-06
1.78634e-05
2.15144e-06
1.44137e-05
3.4496e-06
9.17902e-06
5.23466e-06
1.66808e-06
7.51087e-06
-8.57109e-06
1.02391e-05
-2.18879e-05
1.33168e-05
-3.84452e-05
1.65572e-05
-5.8147e-05
1.97018e-05
-8.05579e-05
2.24107e-05
-0.000104839
2.42812e-05
-0.000129734
2.48945e-05
-0.000153614
2.388e-05
-0.000174593
2.0979e-05
-0.000190689
1.60963e-05
-0.000200028
9.33869e-06
-0.000201088
1.06052e-06
-0.00019293
-8.15857e-06
-0.000175308
-1.76217e-05
-0.000148745
-2.65631e-05
-0.000114535
-3.42102e-05
-7.47032e-05
-3.98314e-05
-3.19025e-05
-4.28007e-05
1.07519e-05
-4.26544e-05
5.00033e-05
-3.92514e-05
8.30006e-05
-3.29973e-05
0.000107568
-2.45675e-05
0.000122442
-1.48736e-05
0.000127508
-5.06593e-06
0.000123848
3.65971e-06
0.00011346
1.03876e-05
9.87368e-05
1.47235e-05
8.20204e-05
1.67164e-05
6.52485e-05
1.67719e-05
4.97667e-05
1.54818e-05
3.63089e-05
1.34578e-05
2.51024e-05
1.12065e-05
1.60394e-05
9.06304e-06
8.89303e-06
7.14636e-06
3.59409e-06
5.29894e-06
5.05122e-07
3.08897e-06
5.05122e-07
4.47805e-06
-6.17914e-06
1.38523e-05
-1.38961e-05
2.43134e-05
-1.59542e-05
3.29006e-05
-1.33739e-05
3.80022e-05
-8.34958e-06
3.92279e-05
-2.86506e-06
3.68592e-05
1.98995e-06
3.1203e-05
6.16166e-06
2.21509e-05
1.02984e-05
9.075e-06
1.52272e-05
-9.02201e-06
2.15464e-05
-3.32409e-05
2.94534e-05
-6.44813e-05
3.87511e-05
-0.000103183
4.89404e-05
-0.000149116
5.92495e-05
-0.000201219
6.86608e-05
-0.000257547
7.60291e-05
-0.000315388
8.02517e-05
-0.000371545
8.04386e-05
-0.000422683
7.60325e-05
-0.000465663
6.68601e-05
-0.000497807
5.31224e-05
-0.000517061
3.53504e-05
-0.000522085
1.43623e-05
-0.000512332
-8.69236e-06
-0.000487895
-3.25957e-05
-0.000449411
-5.61054e-05
-0.000398086
-7.78886e-05
-0.000335747
-9.65491e-05
-0.000264867
-0.000110711
-0.000188539
-0.000119129
-0.000110337
-0.000120857
-3.41421e-05
-0.000115446
3.59711e-05
-0.00010311
9.6312e-05
-8.49084e-05
0.000144066
-6.26274e-05
0.000177309
-3.83098e-05
0.000195254
-1.42846e-05
0.000198493
7.14868e-06
0.000189124
2.40921e-05
0.000170297
3.55438e-05
0.000145602
4.14669e-05
0.000118448
4.26352e-05
9.16022e-05
4.03039e-05
6.69301e-05
3.58786e-05
4.54191e-05
3.0574e-05
2.74593e-05
2.51062e-05
1.3335e-05
1.94232e-05
3.75541e-06
1.26685e-05
4.26053e-06
5.98771e-06
-1.21669e-05
1.73385e-05
-2.52469e-05
2.88024e-05
-2.74184e-05
3.68222e-05
-2.1394e-05
3.95363e-05
-1.1064e-05
3.63562e-05
3.14766e-07
2.72187e-05
1.11271e-05
1.19166e-05
2.14636e-05
-1.03153e-05
3.253e-05
-4.07539e-05
4.56656e-05
-8.07589e-05
6.15513e-05
-0.000131253
7.99478e-05
-0.000192303
9.98001e-05
-0.000262802
0.00011944
-0.000340405
0.000136853
-0.000421755
0.000150011
-0.000502935
0.000157209
-0.000579992
0.000157309
-0.000649383
0.000149829
-0.000708242
0.000134892
-0.000754484
0.000113102
-0.000786756
8.53939e-05
-0.000804297
5.28914e-05
-0.000806753
1.68181e-05
-0.000793984
-2.14607e-05
-0.00076601
-6.05698e-05
-0.000723146
-9.89694e-05
-0.000666125
-0.00013491
-0.000596181
-0.000166493
-0.000515159
-0.000191732
-0.000425585
-0.000208704
-0.000330656
-0.000215786
-0.000234157
-0.000211946
-0.000140221
-0.000197046
-5.30796e-05
-0.00017205
2.3304e-05
-0.000139011
8.59574e-05
-0.000100963
0.000133089
-6.14162e-05
0.000163732
-2.34946e-05
0.00017803
9.79388e-06
0.000177522
3.60527e-05
0.000165008
5.39801e-05
0.000144039
6.36044e-05
0.000118296
6.60473e-05
9.10385e-05
6.31357e-05
6.47417e-05
5.68709e-05
4.10641e-05
4.87838e-05
2.12072e-05
3.92801e-05
6.60699e-06
2.72687e-05
1.08675e-05
6.50863e-06
-1.86754e-05
1.75974e-05
-3.63358e-05
2.69519e-05
-3.67732e-05
3.0758e-05
-2.52003e-05
2.72097e-05
-7.51609e-06
1.5614e-05
1.19102e-05
-4.56474e-06
3.13056e-05
-3.43405e-05
5.12391e-05
-7.52363e-05
7.34256e-05
-0.000128729
9.9158e-05
-0.000195548
0.000128371
-0.000275114
0.000159514
-0.0003653
0.000189986
-0.000462619
0.000216758
-0.000562757
0.000236991
-0.000661265
0.000248518
-0.000754166
0.00025011
-0.000838325
0.000241468
-0.000911531
0.000223035
-0.000972375
0.000195736
-0.00102003
0.000160758
-0.00105402
0.000119379
-0.00107398
7.28531e-05
-0.00107958
2.24241e-05
-0.00107045
-3.05964e-05
-0.00104628
-8.47424e-05
-0.00100691
-0.000138332
-0.000952419
-0.000189404
-0.000883208
-0.000235705
-0.000800216
-0.000274724
-0.000705077
-0.000303842
-0.000600279
-0.000320584
-0.000489239
-0.000322986
-0.000376229
-0.000310056
-0.000266084
-0.000282194
-0.000163659
-0.000241436
-7.32703e-05
-0.000191352
1.81027e-06
-0.000136497
6.0009e-05
-8.16934e-05
0.000101022
-3.12193e-05
0.000125105
1.197e-05
0.000133548
4.55372e-05
0.000128857
6.82955e-05
0.000114328
8.05762e-05
9.3544e-05
8.39195e-05
6.98673e-05
8.05475e-05
4.61144e-05
7.25367e-05
2.46354e-05
6.07592e-05
7.92801e-06
4.39761e-05
1.87955e-05
6.20534e-06
-2.48808e-05
1.4896e-05
-4.50265e-05
1.92065e-05
-4.10839e-05
1.54764e-05
-2.14704e-05
2.15876e-06
5.80127e-06
-2.16304e-05
3.56991e-05
-5.70678e-05
6.67428e-05
-0.00010588
0.000100051
-0.00016969
0.000137236
-0.000249062
0.00017853
-0.00034281
0.000222119
-0.000447918
0.000264621
-0.000560003
0.000302071
-0.000674123
0.000330878
-0.000785601
0.000348469
-0.000890617
0.000353534
-0.000986443
0.000345936
-0.00107137
0.000326392
-0.00114442
0.000296091
-0.00120512
0.000256436
-0.00125323
0.000208871
-0.00128861
0.000154754
-0.00131109
9.53345e-05
-0.00132051
3.18462e-05
-0.00131663
-3.4485e-05
-0.00129907
-0.000102303
-0.00126733
-0.000170064
-0.00122086
-0.000235879
-0.00115912
-0.000297444
-0.00108183
-0.000352011
-0.000989233
-0.000396441
-0.000882423
-0.000427394
-0.000763695
-0.000441714
-0.00063675
-0.000437001
-0.000506655
-0.000412289
-0.000379438
-0.000368653
-0.000261299
-0.000309491
-0.000157537
-0.000240259
-7.16777e-05
-0.000167552
-5.16246e-06
-9.77345e-05
4.25516e-05
-3.5744e-05
7.27096e-05
1.53792e-05
8.69151e-05
5.409e-05
8.76958e-05
7.97955e-05
7.82606e-05
9.33548e-05
6.21214e-05
9.66866e-05
4.27391e-05
9.19191e-05
2.34077e-05
8.00906e-05
7.60302e-06
5.97807e-05
2.63985e-05
4.89859e-06
-2.97794e-05
8.88131e-06
-4.90093e-05
5.29116e-06
-3.74939e-05
-8.92172e-06
-7.25775e-06
-3.51017e-05
3.19811e-05
-7.44116e-05
7.50087e-05
-0.00012857
0.000120901
-0.000199324
0.000170805
-0.000287234
0.000225145
-0.000390774
0.00028207
-0.000506299
0.000337644
-0.000628748
0.000387069
-0.000752671
0.000425994
-0.000873162
0.000451369
-0.000986415
0.000461722
-0.00108987
0.000456991
-0.00118205
0.000438116
-0.00126224
0.000406584
-0.00133025
0.000364093
-0.0013862
0.000312385
-0.00143042
0.000253099
-0.00146333
0.000187659
-0.00148532
0.000117324
-0.00149674
4.32662e-05
-0.0014977
-3.35273e-05
-0.00148793
-0.000112069
-0.00146681
-0.000191184
-0.00143331
-0.000269381
-0.00138605
-0.000344707
-0.00132345
-0.000414607
-0.00124406
-0.000475826
-0.00114699
-0.000524463
-0.00103245
-0.000556257
-0.000902309
-0.000567143
-0.00076053
-0.000554068
-0.000613239
-0.000515944
-0.00046822
-0.00045451
-0.000333733
-0.000374747
-0.000216843
-0.000284442
-0.000121856
-0.000192721
-4.97282e-05
-0.000107872
1.177e-06
-3.5526e-05
3.34607e-05
2.18063e-05
4.96745e-05
6.35817e-05
5.27773e-05
9.02519e-05
4.61834e-05
0.000103281
3.35955e-05
0.000104507
1.88743e-05
9.48118e-05
6.11429e-06
7.25408e-05
3.25128e-05
2.27505e-06
-3.20545e-05
-9.1272e-07
-4.58217e-05
-1.50022e-05
-2.34046e-05
-4.21856e-05
1.99254e-05
-8.36459e-05
7.34412e-05
-0.000140817
0.00013218
-0.0002154
0.000195483
-0.000308073
0.000263478
-0.0004173
0.000334372
-0.000539136
0.000403906
-0.000668034
0.000466543
-0.000798062
0.000517097
-0.00092395
0.000551881
-0.00104168
0.000569095
-0.00114858
0.000568631
-0.0012432
0.000551607
-0.00132494
0.00051986
-0.00139389
0.000475526
-0.0014506
0.000420803
-0.001496
0.00035779
-0.00153121
0.000288304
-0.00155736
0.00021381
-0.00157554
0.000135502
-0.00158658
5.43056e-05
-0.00159094
-2.91672e-05
-0.00158861
-0.000114397
-0.00157908
-0.000200715
-0.00156119
-0.000287273
-0.00153309
-0.000372799
-0.00149235
-0.000455353
-0.00143608
-0.000532095
-0.00136137
-0.00059917
-0.00126585
-0.000651781
-0.00114847
-0.000684527
-0.00101041
-0.000692123
-0.000855859
-0.000670496
-0.000692226
-0.000618143
-0.000529562
-0.000537411
-0.00037888
-0.000435124
-0.000249656
-0.000321945
-0.00014737
-0.000210158
-7.2482e-05
-0.000110414
-2.16877e-05
-2.89881e-05
9.33525e-06
3.25588e-05
2.44448e-05
7.51424e-05
2.74248e-05
0.000100301
2.22324e-05
0.000109699
1.30477e-05
0.000103996
4.21336e-06
8.13751e-05
3.67262e-05
-1.91628e-06
-3.01382e-05
-1.46511e-05
-3.30871e-05
-4.13198e-05
3.26388e-06
-8.32135e-05
6.1819e-05
-0.000141344
0.000131572
-0.00021711
0.000207946
-0.000311295
0.000289668
-0.000422616
0.000374799
-0.000547181
0.000458937
-0.000679188
0.000535912
-0.000812248
0.000599603
-0.000940599
0.000645449
-0.0010598
0.000671078
-0.00116687
0.000676174
-0.00126021
0.000661966
-0.00133927
0.000630664
-0.00140437
0.000584964
-0.00145653
0.000527681
-0.00149724
0.000461514
-0.00152827
0.000388823
-0.00155143
0.000311465
-0.00156843
0.00023081
-0.00158074
0.000147811
-0.00158944
6.3009e-05
-0.00159524
-2.33686e-05
-0.00159842
-0.000111222
-0.00159873
-0.000200404
-0.00159526
-0.000290739
-0.00158633
-0.000381731
-0.00156938
-0.000472297
-0.00154098
-0.000560495
-0.00149692
-0.000643236
-0.00143262
-0.000716082
-0.00134393
-0.000773216
-0.00122825
-0.0008078
-0.00108586
-0.000812888
-0.000921056
-0.000782945
-0.000742701
-0.000715766
-0.000563535
-0.00061429
-0.000397934
-0.000487546
-0.000258295
-0.000349798
-0.000151386
-0.000217323
-7.68489e-05
-0.000103525
-2.92179e-05
-1.50723e-05
-2.06517e-06
4.79897e-05
9.97962e-06
8.82558e-05
1.17339e-05
0.000107945
7.79327e-06
0.000107937
2.60151e-06
8.65669e-05
3.93277e-05
-7.7432e-06
-2.23951e-05
-3.18951e-05
-8.9354e-06
-7.24918e-05
4.38604e-05
-0.000129792
0.000119119
-0.000204616
0.000206397
-0.000297696
0.000301026
-0.00040814
0.000400111
-0.000532439
0.000499098
-0.000664821
0.000591319
-0.000798555
0.000669646
-0.000927326
0.000728374
-0.00104612
0.000764241
-0.00115151
0.000776471
-0.00124162
0.00076628
-0.00131588
0.000736231
-0.00137486
0.000689642
-0.00141998
0.000630082
-0.00145327
0.000560972
-0.00147706
0.000485308
-0.00149368
0.000405439
-0.00150523
0.000323017
-0.00151353
0.000239108
-0.00151999
0.000154276
-0.00152566
6.86706e-05
-0.00153125
-1.77782e-05
-0.0015372
-0.000105268
-0.00154357
-0.000194032
-0.00154996
-0.00028435
-0.00155537
-0.000376328
-0.00155794
-0.000469725
-0.00155473
-0.000563704
-0.00154149
-0.000656472
-0.00151274
-0.000744831
-0.0014622
-0.000823757
-0.00138377
-0.000886234
-0.00127301
-0.000923648
-0.00112901
-0.000926951
-0.000956099
-0.000888673
-0.000764807
-0.000805582
-0.000571027
-0.000681325
-0.000392978
-0.000527847
-0.000246189
-0.000364112
-0.000138399
-0.000211316
-6.77033e-05
-8.57678e-05
-2.58945e-05
6.18091e-06
-4.30957e-06
6.66709e-05
3.87185e-06
9.97638e-05
4.28317e-06
0.000107526
1.71504e-06
8.9135e-05
4.10428e-05
-1.49334e-05
-7.46179e-06
-5.16631e-05
2.77941e-05
-0.000106485
9.86824e-05
-0.000178725
0.000191359
-0.000268734
0.000296405
-0.000375971
0.000408263
-0.000497569
0.000521709
-0.000628132
0.000629661
-0.000760805
0.000723993
-0.00088877
0.00079761
-0.00100636
0.000845966
-0.00110959
0.000867467
-0.0011962
0.000863079
-0.00126554
0.00083562
-0.00131834
0.000789039
-0.00135644
0.000727742
-0.00138237
0.000656008
-0.00139895
0.000577555
-0.00140893
0.00049528
-0.00141466
0.00041117
-0.00141805
0.000326411
-0.00142054
0.000241591
-0.00142311
0.000156851
-0.00142648
7.20435e-05
-0.00143118
-1.30806e-05
-0.0014376
-9.88515e-05
-0.00144599
-0.000185643
-0.00145647
-0.000273863
-0.0014689
-0.000363903
-0.00148254
-0.000456081
-0.00149575
-0.000550498
-0.00150549
-0.000646724
-0.00150705
-0.00074328
-0.00149384
-0.000836962
-0.00145788
-0.00092219
-0.0013909
-0.000990635
-0.00128632
-0.00103153
-0.00114187
-0.00103312
-0.000962036
-0.000985418
-0.000759321
-0.000884041
-0.000553293
-0.000733875
-0.000366422
-0.000550982
-0.000217194
-0.000360544
-0.000113338
-0.000189624
-5.01857e-05
-5.69717e-05
-1.63358e-05
3.2821e-05
-1.2879e-06
8.4716e-05
2.74945e-06
0.000103488
1.64866e-06
9.02358e-05
4.26914e-05
-2.29881e-05
1.55263e-05
-7.24457e-05
7.72515e-05
-0.000140708
0.000166944
-0.000226261
0.000276912
-0.000328583
0.000398727
-0.000445547
0.000525226
-0.000572487
0.000648649
-0.000702768
0.000759942
-0.000829234
0.000850459
-0.000945578
0.000913953
-0.00104714
0.000947526
-0.00113117
0.000951499
-0.00119681
0.00092872
-0.00124488
0.000883686
-0.00127752
0.000821681
-0.00129774
0.000747962
-0.00130884
0.000667111
-0.00131394
0.000582651
-0.0013156
0.000496946
-0.00131575
0.000411317
-0.00131566
0.000326323
-0.00131611
0.000242043
-0.00131754
0.000158274
-0.0013202
7.47068e-05
-0.00132431
-8.9684e-06
-0.00133011
-9.30583e-05
-0.00133788
-0.000177866
-0.00134806
-0.00026369
-0.00136106
-0.000350902
-0.00137715
-0.000439985
-0.00139614
-0.000531513
-0.00141687
-0.000625996
-0.00143663
-0.000723516
-0.00145051
-0.000823083
-0.001451
-0.000921705
-0.00142832
-0.00101331
-0.00137188
-0.00108798
-0.0012728
-0.00113219
-0.00112741
-0.00113081
-0.000940554
-0.0010709
-0.000727413
-0.000947016
-0.000511992
-0.000766403
-0.00032127
-0.000551267
-0.000175845
-0.000335048
-8.16154e-05
-0.000151201
-2.96159e-05
-1.91785e-05
-5.39304e-06
6.04931e-05
2.49344e-06
9.5602e-05
2.18146e-06
9.05478e-05
4.48729e-05
-3.11653e-05
4.66915e-05
-9.24301e-05
0.000138516
-0.000172424
0.000246938
-0.000268676
0.000373164
-0.000379529
0.00050958
-0.000501299
0.000646996
-0.000627994
0.000775343
-0.000752438
0.000884385
-0.000867787
0.000965808
-0.000968657
0.00101482
-0.00105166
0.00103053
-0.00111554
0.00101538
-0.00116102
0.000974194
-0.00119042
0.000913094
-0.00120715
0.000838408
-0.00121494
0.000755755
-0.00121729
0.000669453
-0.00121697
0.000582333
-0.00121592
0.000495902
-0.00121529
0.000410686
-0.00121561
0.000326638
-0.00121701
0.00024344
-0.00121944
0.000160705
-0.00122282
7.80897e-05
-0.00122711
-4.67685e-06
-0.00123238
-8.77894e-05
-0.00123885
-0.000171397
-0.00124693
-0.000255614
-0.0012572
-0.000340633
-0.00127039
-0.000426793
-0.00128725
-0.000514651
-0.00130824
-0.000605008
-0.00133293
-0.000698821
-0.00135917
-0.000796848
-0.00138205
-0.000898819
-0.00139329
-0.00100207
-0.00138134
-0.00109993
-0.00133305
-0.00118048
-0.00123707
-0.00122679
-0.00108852
-0.00121944
-0.000893394
-0.00114215
-0.000670629
-0.000989168
-0.000449608
-0.000772287
-0.000261708
-0.000522948
-0.000127796
-0.000285113
-4.91544e-05
-9.78204e-05
-1.12751e-05
2.26138e-05
2.15885e-06
8.21681e-05
2.88113e-06
8.98255e-05
4.7754e-05
-3.85901e-05
8.52816e-05
-0.000109888
0.000209814
-0.000199149
0.000336199
-0.000302832
0.000476847
-0.000418079
0.000624827
-0.000539936
0.000768853
-0.000661659
0.000897066
-0.000776132
0.000998859
-0.000877274
0.00106695
-0.00096092
0.00109847
-0.00102518
0.00109479
-0.00107043
0.00106062
-0.00109896
0.00100272
-0.00111438
0.000928522
-0.00112083
0.000844856
-0.00112215
0.000757078
-0.00112139
0.000668691
-0.00112055
0.000581495
-0.00112069
0.00049604
-0.00112215
0.000412145
-0.00112485
0.000329333
-0.0011285
0.0002471
-0.00113284
0.000165036
-0.0011376
8.2858e-05
-0.00114267
3.92226e-07
-0.00114802
-8.24417e-05
-0.00115375
-0.000165667
-0.0011601
-0.000249263
-0.00116749
-0.000333242
-0.00117659
-0.0004177
-0.00118833
-0.000502908
-0.00120389
-0.000589448
-0.00122436
-0.000678351
-0.00125012
-0.000771091
-0.00127974
-0.000869199
-0.00130857
-0.000973233
-0.00132756
-0.00108095
-0.00132315
-0.00118489
-0.00127946
-0.00127048
-0.00118273
-0.00131617
-0.00102748
-0.00129739
-0.000822122
-0.00119453
-0.000591031
-0.00100338
-0.000369975
-0.000744004
-0.000193732
-0.000461356
-7.9993e-05
-0.00021156
-2.19488e-05
-3.54303e-05
2.47636e-07
5.99716e-05
3.27308e-06
8.68001e-05
5.10271e-05
-4.44949e-05
0.000129776
-0.000123389
0.000288708
-0.000218965
0.000431775
-0.000326547
0.000584428
-0.000442197
0.000740477
-0.000560103
0.000886759
-0.000673317
0.00101028
-0.000775245
0.00110079
-0.000860881
0.00115259
-0.000927483
0.00116507
-0.000974761
0.00114207
-0.00100467
0.00109053
-0.00102081
0.00101886
-0.00102754
0.000935257
-0.00102908
0.000846398
-0.00102878
0.00075677
-0.00102878
0.000668697
-0.00103015
0.000582864
-0.00103311
0.000499001
-0.00103743
0.00041646
-0.00104269
0.000334592
-0.00104849
0.000252901
-0.00105452
0.000171071
-0.00106059
8.89261e-05
-0.00106659
6.38887e-06
-0.00107248
-7.65476e-05
-0.0010783
-0.000159849
-0.00108411
-0.000243452
-0.00109008
-0.000327273
-0.00109654
-0.000411235
-0.00110412
-0.000495327
-0.00111384
-0.000579738
-0.00112713
-0.00066506
-0.00114569
-0.000752523
-0.00117078
-0.00084411
-0.00120178
-0.000942234
-0.00123427
-0.00104846
-0.00125826
-0.0011609
-0.00125796
-0.00127078
-0.00121448
-0.00135966
-0.00111191
-0.00139996
-0.000945442
-0.001361
-0.000728063
-0.00122076
-0.000491729
-0.000980339
-0.000279061
-0.000674023
-0.000125358
-0.000365263
-3.96794e-05
-0.000121109
-4.39263e-06
2.46849e-05
3.03157e-06
7.9376e-05
5.40587e-05
-4.8309e-05
0.000178085
-0.00013195
0.000372349
-0.000230693
0.000530518
-0.000338735
0.00069247
-0.000451295
0.000853037
-0.000562146
0.000997611
-0.000664584
0.00111272
-0.000752864
0.00118907
-0.000823246
0.00122297
-0.000874485
0.00121631
-0.00090782
0.00117541
-0.00092651
0.00110922
-0.000934953
0.0010273
-0.000937643
0.000937948
-0.000938282
0.000847037
-0.0009393
0.000757788
-0.000941854
0.000671251
-0.000946146
0.000587156
-0.000951843
0.000504698
-0.000958439
0.000423057
-0.000965474
0.000341627
-0.00097262
0.000260047
-0.000979691
0.000178141
-0.000986603
9.58379e-05
-0.000993335
1.31217e-05
-0.000999893
-6.99902e-05
-0.00100628
-0.000153465
-0.00101247
-0.000237256
-0.00101847
-0.000321275
-0.00102431
-0.000405398
-0.00103016
-0.000489477
-0.00103649
-0.000573404
-0.0010443
-0.000657258
-0.00105523
-0.000741587
-0.00107154
-0.000827803
-0.00109529
-0.000918482
-0.00112668
-0.00101706
-0.0011614
-0.00112618
-0.00118813
-0.00124406
-0.0011882
-0.00135959
-0.00113953
-0.00144863
-0.00102496
-0.00147557
-0.000842555
-0.00140316
-0.000612953
-0.00120994
-0.0003779
-0.000909076
-0.000185666
-0.000557497
-6.59168e-05
-0.000240858
-1.23367e-05
-2.88952e-05
2.04102e-06
6.49983e-05
5.60997e-05
-4.97029e-05
0.000227788
-0.000135079
0.000457725
-0.000233907
0.000629346
-0.000339326
0.000797889
-0.000446001
0.000959712
-0.000547689
0.0010993
-0.000638258
0.00120329
-0.000713011
0.00126382
-0.000769538
0.0012795
-0.000808013
0.00125478
-0.000830951
0.00119834
-0.000842459
0.00112073
-0.000847156
0.001032
-0.000849108
0.0009399
-0.000851131
0.000849059
-0.000854636
0.000761293
-0.000859915
0.00067653
-0.000866611
0.000593851
-0.000874152
0.000512238
-0.000882027
0.000430932
-0.000889899
0.000349499
-0.000897602
0.000267751
-0.000905097
0.000185636
-0.000912409
0.000103151
-0.000919592
2.03042e-05
-0.000926687
-6.28954e-05
-0.000933706
-0.000146445
-0.000940626
-0.000230335
-0.000947375
-0.000314526
-0.00095384
-0.000398933
-0.000959907
-0.00048341
-0.000965569
-0.000567743
-0.000971119
-0.000651707
-0.000977457
-0.000735249
-0.00098639
-0.00081887
-0.00100068
-0.000904195
-0.00102324
-0.000994505
-0.00105495
-0.00109447
-0.00109115
-0.00120785
-0.00111838
-0.00133235
-0.00111439
-0.00145262
-0.00105398
-0.00153597
-0.000920523
-0.00153662
-0.000718537
-0.00141193
-0.000480207
-0.00114741
-0.000258219
-0.000779485
-0.000101481
-0.000397597
-2.37476e-05
-0.000106628
3.08263e-07
4.09425e-05
5.64079e-05
-4.85899e-05
0.000276378
-0.000132749
0.000541884
-0.000228844
0.000725441
-0.000329069
0.000898114
-0.000427818
0.00105846
-0.000519147
0.00119063
-0.000597714
0.00128185
-0.000659945
0.00132605
-0.000704695
0.00132425
-0.000733335
0.00128342
-0.000749262
0.00121427
-0.000756923
0.00112839
-0.000760646
0.00103573
-0.000763711
0.000942964
-0.000767943
0.000853292
-0.000773877
0.000767227
-0.000781226
0.000683879
-0.000789393
0.000602019
-0.000797821
0.000520666
-0.000806146
0.000439257
-0.000814209
0.000357562
-0.000821998
0.00027554
-0.000829578
0.000193215
-0.00083704
0.000110613
-0.00084447
2.77336e-05
-0.000851929
-5.54361e-05
-0.000859447
-0.000138927
-0.000867017
-0.000222766
-0.00087458
-0.000306963
-0.000882011
-0.000391502
-0.000889114
-0.000476306
-0.00089565
-0.000561206
-0.000901435
-0.000645922
-0.000906572
-0.000730112
-0.000911865
-0.000813576
-0.000919295
-0.000896766
-0.000932178
-0.000981622
-0.000954241
-0.0010724
-0.000986772
-0.00117532
-0.00102398
-0.00129514
-0.00104904
-0.00142756
-0.00103521
-0.00154981
-0.000955085
-0.00161674
-0.000796052
-0.00157096
-0.000574258
-0.0013692
-0.000337186
-0.00101656
-0.000146107
-0.000588676
-3.90019e-05
-0.000213733
-2.30657e-06
4.24717e-06
5.41014e-05
-4.50894e-05
0.000321467
-0.000125299
0.000622093
-0.000216232
0.000816374
-0.000309261
0.000991143
-0.000398749
0.00114795
-0.000479279
0.00127116
-0.000546407
0.00134898
-0.000597642
0.00137729
-0.000632928
0.00135953
-0.000654509
0.001305
-0.000666226
0.00122599
-0.000672405
0.00113457
-0.00067674
0.00104006
-0.000681597
0.000947821
-0.000687927
0.000859622
-0.000695653
0.000774953
-0.000704218
0.000692444
-0.000713026
0.000610827
-0.000721673
0.000529313
-0.000729982
0.000447566
-0.000737949
0.00036553
-0.00074566
0.000283251
-0.000753231
0.000200787
-0.000760772
0.000118154
-0.000768367
3.53289e-05
-0.00077608
-4.77228e-05
-0.000783946
-0.000131061
-0.000791975
-0.000214737
-0.00080014
-0.000298797
-0.000808364
-0.000383279
-0.000816489
-0.000468181
-0.000824259
-0.000553436
-0.000831327
-0.000638855
-0.000837349
-0.00072409
-0.000842268
-0.000808657
-0.000846835
-0.000892199
-0.000853273
-0.000975185
-0.000865566
-0.00106011
-0.000888238
-0.00115265
-0.00092243
-0.00126095
-0.000959844
-0.00139015
-0.000978591
-0.00153106
-0.00094706
-0.00164827
-0.000838293
-0.00167973
-0.000649452
-0.00155804
-0.000414591
-0.00125142
-0.00019775
-0.000805517
-5.87595e-05
-0.000352724
-5.87551e-06
-4.86368e-05
4.82259e-05
-3.94742e-05
0.000360942
-0.00011333
0.000695949
-0.000197115
0.000900158
-0.000281496
0.00107552
-0.000360985
0.00122744
-0.000430831
0.001341
-0.000487498
0.00140565
-0.000529461
0.00141925
-0.000557489
0.00138756
-0.000574338
0.00132185
-0.000583886
0.00123554
-0.000590003
0.00114069
-0.000595596
0.00104565
-0.000602182
0.000954407
-0.000610066
0.000867506
-0.000618842
0.000783729
-0.000627914
0.000701516
-0.000636822
0.000619736
-0.000645348
0.000537838
-0.000653472
0.000455691
-0.00066129
0.000373348
-0.000668932
0.000290893
-0.00067652
0.000208375
-0.000684155
0.000125788
-0.000691908
4.30828e-05
-0.000699835
-3.97962e-05
-0.000707965
-0.000122931
-0.000716315
-0.000206387
-0.000724882
-0.00029023
-0.000733631
-0.000374529
-0.000742474
-0.000459339
-0.000751232
-0.000544678
-0.000759602
-0.000630485
-0.000767146
-0.000716546
-0.000773384
-0.000802418
-0.000778129
-0.000887454
-0.000782167
-0.000971146
-0.000788153
-0.00105412
-0.000800926
-0.00113988
-0.000825632
-0.00123624
-0.0008622
-0.00135358
-0.000897732
-0.00149553
-0.000903483
-0.00164252
-0.000844056
-0.00173915
-0.000698526
-0.00170357
-0.000482202
-0.00146774
-0.000252323
-0.0010354
-8.31663e-05
-0.00052188
-1.03786e-05
-0.000121424
3.78472e-05
-3.21161e-05
0.000393058
-9.75899e-05
0.000761423
-0.000172676
0.000975244
-0.000247442
0.00115029
-0.000316653
0.00129665
-0.000376284
0.00140063
-0.000423654
0.00145302
-0.000458012
0.00145361
-0.00048067
0.00141022
-0.00049454
0.00133572
-0.000503224
0.00124422
-0.000509949
0.00114741
-0.000516838
0.00105254
-0.000524736
0.000962305
-0.000533546
0.000876316
-0.000542758
0.000792941
-0.000551872
0.000710631
-0.000560604
0.000628468
-0.000568893
0.000546127
-0.000576823
0.00046362
-0.000584531
0.000381056
-0.000592153
0.000298515
-0.0005998
0.000216022
-0.000607556
0.000133544
-0.000615478
5.10051e-05
-0.000623611
-3.16628e-05
-0.000631979
-0.000114563
-0.000640597
-0.000197769
-0.000649469
-0.000281358
-0.000658584
-0.000365415
-0.000667897
-0.000450025
-0.000677314
-0.000535261
-0.000686638
-0.00062116
-0.000695523
-0.000707662
-0.000703438
-0.000794502
-0.000709784
-0.000881108
-0.000714306
-0.000966624
-0.000717996
-0.00105043
-0.000724218
-0.00113366
-0.000738871
-0.00122159
-0.000767233
-0.00132522
-0.000806049
-0.00145671
-0.00083492
-0.00161365
-0.000817341
-0.00175673
-0.000718585
-0.00180233
-0.000533406
-0.00165292
-0.000304542
-0.00126426
-0.000111212
-0.00071521
-1.58189e-05
-0.000216817
2.20283e-05
-2.34388e-05
0.000416496
-7.88835e-05
0.000816867
-0.000144115
0.00104048
-0.000208687
0.00121486
-0.000267657
0.00135562
-0.000317725
0.0014507
-0.000356958
0.00149225
-0.000385172
0.00148182
-0.000403931
0.00142898
-0.000416019
0.00134781
-0.000424546
0.00125275
-0.000432044
0.00115491
-0.000439954
0.00106045
-0.000448651
0.000971001
-0.000457849
0.000885514
-0.000467075
0.000802166
-0.000475976
0.000719532
-0.000484423
0.000636915
-0.000492464
0.000554168
-0.000500231
0.000471388
-0.00050787
0.000388695
-0.000515503
0.000306149
-0.000523223
0.000223743
-0.000531103
0.000141423
-0.000539191
5.90941e-05
-0.00054753
-2.33239e-05
-0.000556136
-0.000105957
-0.00056502
-0.000188885
-0.000574184
-0.000272193
-0.000583621
-0.000355978
-0.000593309
-0.000440337
-0.000603198
-0.000525372
-0.00061318
-0.000611178
-0.000623035
-0.000697806
-0.00063236
-0.000785178
-0.00064053
-0.000872939
-0.00064684
-0.000960314
-0.000651074
-0.0010462
-0.000654699
-0.00113003
-0.000662205
-0.00121408
-0.000680621
-0.0013068
-0.000714
-0.00142333
-0.000752606
-0.00157505
-0.000765575
-0.00174376
-0.000710894
-0.00185701
-0.00056436
-0.00179945
-0.00034937
-0.00147925
-0.000140901
-0.00092368
-2.20944e-05
-0.000335624
-6.60978e-08
-1.38834e-05
0.00043038
-5.80093e-05
0.000860993
-0.000112558
0.00109502
-0.000166645
0.00126895
-0.000215601
0.00140457
-0.000256804
0.00149191
-0.000288938
0.00152438
-0.000312178
0.00150506
-0.000328096
0.00144489
-0.000339131
0.00135885
-0.000347789
0.00126141
-0.000355937
0.00116306
-0.000364481
0.00106899
-0.000373513
0.000980033
-0.000382703
0.000894704
-0.000391681
0.000811145
-0.000400243
0.000728094
-0.000408372
0.000645044
-0.000416176
0.000561972
-0.0004238
0.000479011
-0.000431378
0.000396273
-0.000439016
0.000313787
-0.000446793
0.00023152
-0.000454774
0.000149404
-0.000463012
6.7332e-05
-0.000471548
-1.47878e-05
-0.000480395
-9.71098e-05
-0.000489562
-0.000179719
-0.000499043
-0.000262711
-0.000508829
-0.000346192
-0.000518899
-0.000430267
-0.000529223
-0.000515049
-0.000539739
-0.000600662
-0.000550322
-0.000687224
-0.00056071
-0.00077479
-0.000570423
-0.000863225
-0.000578727
-0.00095201
-0.000584853
-0.00104007
-0.000588815
-0.00112607
-0.00059299
-0.00120991
-0.000603458
-0.00129634
-0.000627881
-0.00139891
-0.000666173
-0.00153675
-0.00069752
-0.00171242
-0.000679809
-0.00187472
-0.000574238
-0.00190502
-0.000383093
-0.00167039
-0.000169656
-0.00113712
-2.94156e-05
-0.000475865
-2.94817e-05
-3.86963e-06
0.000434249
-3.57316e-05
0.000892855
-7.90122e-05
0.0011383
-0.000122519
0.00131246
-0.000161775
0.00144383
-0.000194757
0.00152489
-0.000220639
0.00155027
-0.000239773
0.00152419
-0.000253545
0.00145866
-0.000263904
0.00136921
-0.000272721
0.00127022
-0.000281271
0.00117161
-0.000290072
0.00107779
-0.000299069
0.000989031
-0.000307979
0.000903614
-0.000316556
0.000819722
-0.000324714
0.000736252
-0.000332511
0.000652841
-0.000340075
0.000569536
-0.000347545
0.000486482
-0.00035504
0.000403768
-0.00036265
0.000321397
-0.000370446
0.000239315
-0.000378491
0.00015745
-0.000386849
7.56899e-05
-0.000395565
-6.07189e-06
-0.000404654
-8.802e-05
-0.000414121
-0.000170252
-0.000423954
-0.000252878
-0.000434136
-0.00033601
-0.000444643
-0.000419759
-0.000455447
-0.000504244
-0.000466507
-0.000589602
-0.000477745
-0.000675985
-0.000489002
-0.000763533
-0.000499953
-0.000852274
-0.000510013
-0.00094195
-0.000518331
-0.00103176
-0.000524172
-0.00112023
-0.000528127
-0.00120595
-0.000534113
-0.00129035
-0.000550069
-0.00138296
-0.000582347
-0.00150448
-0.000621439
-0.00167332
-0.000631358
-0.0018648
-0.000564757
-0.00197163
-0.000403824
-0.00183133
-0.000195035
-0.00134591
-3.78455e-05
-0.000633054
-6.73273e-05
6.06509e-06
0.000428184
-1.27193e-05
0.000911639
-4.43698e-05
0.00116995
-7.72998e-05
0.00134539
-0.000107174
0.0014737
-0.000132467
0.00155018
-0.000152728
0.00157053
-0.00016834
0.00153981
-0.000180368
0.00147069
-0.000190195
0.00137903
-0.000199063
0.00127909
-0.000207743
0.00118029
-0.00021648
0.00108653
-0.000225172
0.000997723
-0.00023362
0.000912062
-0.000241697
0.0008278
-0.000249408
0.000743963
-0.000256846
0.000660279
-0.000264143
0.000576833
-0.000271425
0.000493764
-0.000278792
0.000411136
-0.000286328
0.000328932
-0.000294098
0.000247086
-0.000302167
0.000165519
-0.000310609
8.41321e-05
-0.00031948
2.79907e-06
-0.000328805
-7.86946e-05
-0.000338584
-0.000160472
-0.000348798
-0.000242665
-0.000359423
-0.000325386
-0.00037043
-0.000408752
-0.000381789
-0.000492885
-0.000393465
-0.000577926
-0.000405402
-0.000664048
-0.000417495
-0.00075144
-0.000429528
-0.00084024
-0.000441083
-0.000930395
-0.000451443
-0.0010214
-0.000459671
-0.001112
-0.000465289
-0.00120034
-0.000470062
-0.00128558
-0.000480189
-0.00137283
-0.000504732
-0.00147993
-0.000543921
-0.00163413
-0.000571913
-0.00183681
-0.000539331
-0.00200421
-0.000411458
-0.0019592
-0.000215275
-0.00154209
-4.69602e-05
-0.000801369