/*--------------------------------*- C++ -*----------------------------------*\
  =========                 |
  \\      /  F ield         | OpenFOAM: The Open Source CFD Toolbox
   \\    /   O peration     | Website:  https://openfoam.org
    \\  /    A nd           | Version:  7
     \\/     M anipulation  |
\*---------------------------------------------------------------------------*/
FoamFile
{
    version     2.0;
    format      ascii;
    class       volVectorField;
    location    "1250";
    object      U;
}
// * * * * * * * * * * * * * * * * * * * * * * * * * * * * * * * * * * * * * //

dimensions      [0 1 -1 0 0 0 0];

internalField   nonuniform List<vector> 
2500
(
(0.000207723 -0.000201011 0)
(0.0018675 -0.0005714 0)
(0.00447433 -0.000697887 0)
(0.0071633 -0.00060014 0)
(0.00922935 -0.000419015 0)
(0.0104506 -0.000264343 0)
(0.0109304 -0.000188011 0)
(0.0108812 -0.000185887 0)
(0.0104507 -0.000219875 0)
(0.00963415 -0.000245439 0)
(0.00828246 -0.000228688 0)
(0.00616326 -0.00015077 0)
(0.00301925 -2.64067e-06 0)
(-0.0013933 0.00022108 0)
(-0.00727903 0.000523535 0)
(-0.0147705 0.000908261 0)
(-0.02389 0.00137526 0)
(-0.0345078 0.00191292 0)
(-0.0463058 0.00248803 0)
(-0.058758 0.00303827 0)
(-0.071136 0.00347386 0)
(-0.0825463 0.00369025 0)
(-0.0919997 0.003589 0)
(-0.0985135 0.00310487 0)
(-0.101222 0.00223212 0)
(-0.0994529 0.00102887 0)
(-0.0929364 -0.000374067 0)
(-0.0817462 -0.00181116 0)
(-0.0663502 -0.00310886 0)
(-0.047605 -0.00410022 0)
(-0.0267295 -0.00464025 0)
(-0.00520593 -0.0046063 0)
(0.0154399 -0.00393626 0)
(0.033738 -0.00278506 0)
(0.0483813 -0.00137211 0)
(0.0584141 0.000124893 0)
(0.0634562 0.00149617 0)
(0.0637201 0.00253365 0)
(0.060012 0.00311145 0)
(0.0534973 0.00322459 0)
(0.0454079 0.00298633 0)
(0.0368471 0.00254958 0)
(0.028652 0.00204873 0)
(0.0213425 0.0015744 0)
(0.0151483 0.00117429 0)
(0.0100805 0.000863476 0)
(0.00602941 0.00063129 0)
(0.00290137 0.000436065 0)
(0.000795447 0.000192828 0)
(-8.20013e-05 -8.74013e-05 0)
(0.00056605 -0.00181729 0)
(0.00437745 -0.00431435 0)
(0.00958364 -0.00511662 0)
(0.014605 -0.00444068 0)
(0.0181622 -0.00299827 0)
(0.0197686 -0.00145768 0)
(0.0194628 -0.000192307 0)
(0.0174559 0.000765815 0)
(0.013833 0.00162551 0)
(0.00840533 0.00266552 0)
(0.000735891 0.00410313 0)
(-0.00973156 0.00604428 0)
(-0.0235261 0.00849314 0)
(-0.0410102 0.0113826 0)
(-0.062264 0.0145744 0)
(-0.0869801 0.0178427 0)
(-0.114401 0.020867 0)
(-0.143332 0.0232553 0)
(-0.17225 0.0245987 0)
(-0.199476 0.0245399 0)
(-0.223352 0.0228319 0)
(-0.2424 0.0193753 0)
(-0.255418 0.0142342 0)
(-0.261553 0.00764108 0)
(-0.260327 -1.42509e-05 0)
(-0.251675 -0.00821554 0)
(-0.23579 -0.0163923 0)
(-0.21312 -0.0239907 0)
(-0.184433 -0.0304478 0)
(-0.150816 -0.0352299 0)
(-0.113679 -0.0378744 0)
(-0.0747202 -0.0380379 0)
(-0.0358497 -0.0355757 0)
(0.000998683 -0.0306708 0)
(0.0339795 -0.0238217 0)
(0.0614161 -0.0157544 0)
(0.0819911 -0.00728988 0)
(0.0949832 0.000689189 0)
(0.100257 0.00733946 0)
(0.0984277 0.0120787 0)
(0.0909493 0.0147094 0)
(0.0796081 0.0154332 0)
(0.0662303 0.0147147 0)
(0.0524139 0.0131074 0)
(0.0393371 0.0111172 0)
(0.0276942 0.00911052 0)
(0.0177738 0.00724903 0)
(0.00968251 0.00543488 0)
(0.00372638 0.00334341 0)
(0.000329318 0.000918575 0)
(0.000785754 -0.00449563 0)
(0.00568929 -0.00969406 0)
(0.0117187 -0.0109168 0)
(0.0169072 -0.00900543 0)
(0.0197641 -0.00542356 0)
(0.0197125 -0.0014692 0)
(0.0166701 0.0021533 0)
(0.0106348 0.00542396 0)
(0.0013811 0.00878195 0)
(-0.0116227 0.0127936 0)
(-0.0290897 0.0178451 0)
(-0.0516474 0.0240135 0)
(-0.0796013 0.0310872 0)
(-0.112722 0.0386025 0)
(-0.150135 0.0458793 0)
(-0.190365 0.0520987 0)
(-0.231523 0.056437 0)
(-0.271574 0.0582082 0)
(-0.308595 0.0569662 0)
(-0.340959 0.0525449 0)
(-0.367428 0.0450429 0)
(-0.387157 0.0347759 0)
(-0.399636 0.022218 0)
(-0.404604 0.00794915 0)
(-0.401983 -0.00738215 0)
(-0.391749 -0.0230937 0)
(-0.373942 -0.0384725 0)
(-0.348833 -0.0527295 0)
(-0.316904 -0.0650312 0)
(-0.278922 -0.0745392 0)
(-0.23598 -0.0804791 0)
(-0.189512 -0.0822409 0)
(-0.14128 -0.0794941 0)
(-0.0932873 -0.0722945 0)
(-0.0476459 -0.0611898 0)
(-0.00634986 -0.0471855 0)
(0.0288774 -0.0315731 0)
(0.0566775 -0.0157997 0)
(0.0763589 -0.0011555 0)
(0.0876483 0.0111629 0)
(0.0908082 0.0202478 0)
(0.0870921 0.0257356 0)
(0.0782052 0.0278583 0)
(0.0660375 0.0273053 0)
(0.0523891 0.0249757 0)
(0.0387211 0.0217246 0)
(0.0260339 0.0181224 0)
(0.014968 0.0142395 0)
(0.00625655 0.00958338 0)
(0.000705229 0.00358689 0)
(0.000917684 -0.00772726 0)
(0.00606872 -0.0155919 0)
(0.0115465 -0.0165375 0)
(0.0151638 -0.0124511 0)
(0.0154174 -0.00573272 0)
(0.0117485 0.00170077 0)
(0.00393275 0.00894396 0)
(-0.00837881 0.0161054 0)
(-0.0258514 0.0239479 0)
(-0.0493005 0.0332225 0)
(-0.0793634 0.0442092 0)
(-0.116138 0.0565668 0)
(-0.158955 0.0694195 0)
(-0.206363 0.0815445 0)
(-0.256322 0.0916133 0)
(-0.306548 0.0984396 0)
(-0.354867 0.101175 0)
(-0.399472 0.0993994 0)
(-0.439031 0.0930999 0)
(-0.472664 0.0825749 0)
(-0.499846 0.0683239 0)
(-0.520281 0.0509498 0)
(-0.533778 0.0310833 0)
(-0.540169 0.00935421 0)
(-0.539291 -0.0135782 0)
(-0.530964 -0.0369769 0)
(-0.515064 -0.059992 0)
(-0.49156 -0.0816635 0)
(-0.460555 -0.100928 0)
(-0.42237 -0.116643 0)
(-0.377629 -0.127668 0)
(-0.327346 -0.133004 0)
(-0.272989 -0.131958 0)
(-0.216497 -0.124325 0)
(-0.160183 -0.110539 0)
(-0.106529 -0.0917093 0)
(-0.0578844 -0.0695363 0)
(-0.0161193 -0.046023 0)
(0.0175727 -0.0230842 0)
(0.0426014 -0.0024625 0)
(0.0589045 0.0146055 0)
(0.0667419 0.027196 0)
(0.0672249 0.0349342 0)
(0.061909 0.0381616 0)
(0.0525838 0.0377823 0)
(0.0410408 0.0349319 0)
(0.028831 0.0305677 0)
(0.0171895 0.0250318 0)
(0.00742125 0.0177403 0)
(0.000862103 0.00736609 0)
(0.000999751 -0.0110184 0)
(0.00561094 -0.0208273 0)
(0.00922874 -0.0203477 0)
(0.00967721 -0.0129009 0)
(0.00561821 -0.00193433 0)
(-0.00346706 0.0101288 0)
(-0.0180432 0.0223881 0)
(-0.0388658 0.0352872 0)
(-0.0668687 0.0497658 0)
(-0.102704 0.0663498 0)
(-0.146269 0.0846663 0)
(-0.19649 0.103485 0)
(-0.251426 0.121074 0)
(-0.308631 0.13564 0)
(-0.365599 0.145698 0)
(-0.42015 0.150295 0)
(-0.470638 0.149065 0)
(-0.515984 0.142137 0)
(-0.555554 0.129961 0)
(-0.58902 0.113152 0)
(-0.616227 0.0923876 0)
(-0.637099 0.0683381 0)
(-0.651562 0.0416279 0)
(-0.659529 0.0128744 0)
(-0.660907 -0.0172566 0)
(-0.655571 -0.0480272 0)
(-0.643297 -0.0785894 0)
(-0.623804 -0.107941 0)
(-0.596804 -0.134897 0)
(-0.56207 -0.158094 0)
(-0.519553 -0.176059 0)
(-0.469543 -0.187329 0)
(-0.41285 -0.190651 0)
(-0.350951 -0.185251 0)
(-0.286054 -0.171109 0)
(-0.220996 -0.149156 0)
(-0.158941 -0.121283 0)
(-0.102892 -0.0900951 0)
(-0.0551364 -0.0584451 0)
(-0.0168634 -0.0288502 0)
(0.0118014 -0.00308635 0)
(0.031238 0.0176445 0)
(0.042 0.0326725 0)
(0.0452914 0.0418435 0)
(0.0426317 0.0456959 0)
(0.0357472 0.0452981 0)
(0.026401 0.0417593 0)
(0.0162514 0.0356001 0)
(0.00711005 0.0261578 0)
(0.000796511 0.0113832 0)
(0.000995722 -0.0139233 0)
(0.00416168 -0.0242941 0)
(0.0045804 -0.0208774 0)
(0.000394515 -0.0087247 0)
(-0.00946903 0.00766216 0)
(-0.0255727 0.0256014 0)
(-0.0486595 0.0444916 0)
(-0.0797098 0.0650059 0)
(-0.119438 0.0878008 0)
(-0.16766 0.112563 0)
(-0.223032 0.137837 0)
(-0.28325 0.16147 0)
(-0.345547 0.18124 0)
(-0.407232 0.195372 0)
(-0.466081 0.202794 0)
(-0.52051 0.203159 0)
(-0.569547 0.196694 0)
(-0.612686 0.183981 0)
(-0.649725 0.165753 0)
(-0.680668 0.142793 0)
(-0.705649 0.115873 0)
(-0.724864 0.0856859 0)
(-0.73852 0.0528615 0)
(-0.746818 0.0180195 0)
(-0.749881 -0.0182286 0)
(-0.747702 -0.05528 0)
(-0.740071 -0.0924428 0)
(-0.726555 -0.12883 0)
(-0.706549 -0.163323 0)
(-0.679285 -0.194534 0)
(-0.643962 -0.220805 0)
(-0.599933 -0.240266 0)
(-0.546954 -0.25103 0)
(-0.485477 -0.251491 0)
(-0.416919 -0.240725 0)
(-0.343811 -0.218892 0)
(-0.269726 -0.187506 0)
(-0.198854 -0.149421 0)
(-0.135248 -0.108405 0)
(-0.0819105 -0.0683362 0)
(-0.0401315 -0.032336 0)
(-0.00953549 -0.00226778 0)
(0.0110446 0.0211365 0)
(0.0227996 0.0375959 0)
(0.0271578 0.047326 0)
(0.0257829 0.0511089 0)
(0.0204651 0.0499386 0)
(0.0130781 0.0443199 0)
(0.00574934 0.0334778 0)
(0.000591027 0.0148943 0)
(0.000839849 -0.0158646 0)
(0.00148368 -0.0247693 0)
(-0.00259644 -0.016693 0)
(-0.0126877 0.00145236 0)
(-0.0295747 0.0244078 0)
(-0.0539317 0.0495763 0)
(-0.0866585 0.0766493 0)
(-0.128514 0.10609 0)
(-0.179374 0.137652 0)
(-0.237808 0.169787 0)
(-0.30129 0.200016 0)
(-0.366788 0.225704 0)
(-0.431387 0.244737 0)
(-0.492724 0.255855 0)
(-0.54914 0.25866 0)
(-0.599642 0.253438 0)
(-0.643753 0.240896 0)
(-0.681372 0.22194 0)
(-0.712675 0.197537 0)
(-0.738059 0.168647 0)
(-0.758055 0.136145 0)
(-0.773237 0.100761 0)
(-0.78418 0.0631259 0)
(-0.791384 0.0237904 0)
(-0.795174 -0.0168088 0)
(-0.795679 -0.0582897 0)
(-0.792809 -0.100209 0)
(-0.786131 -0.141958 0)
(-0.7749 -0.182694 0)
(-0.758025 -0.221245 0)
(-0.734146 -0.25601 0)
(-0.70176 -0.284957 0)
(-0.659458 -0.30572 0)
(-0.606274 -0.315855 0)
(-0.542134 -0.313255 0)
(-0.468297 -0.296704 0)
(-0.387668 -0.266454 0)
(-0.304744 -0.224645 0)
(-0.225058 -0.175295 0)
(-0.154079 -0.123641 0)
(-0.0958055 -0.0748741 0)
(-0.0517008 -0.032788 0)
(-0.0207504 0.000863687 0)
(-0.000746016 0.0259443 0)
(0.0103079 0.0427861 0)
(0.0143139 0.052011 0)
(0.0132078 0.054416 0)
(0.00901331 0.0503539 0)
(0.00400086 0.0389273 0)
(0.000362251 0.0174925 0)
(0.000465036 -0.0160973 0)
(-0.00257358 -0.0209728 0)
(-0.0122854 -0.00661637 0)
(-0.0292347 0.0186606 0)
(-0.0539518 0.0492745 0)
(-0.0871883 0.0828808 0)
(-0.129668 0.119127 0)
(-0.1814 0.157667 0)
(-0.241059 0.196948 0)
(-0.306059 0.234259 0)
(-0.373163 0.266553 0)
(-0.439202 0.291289 0)
(-0.501573 0.306907 0)
(-0.558431 0.312869 0)
(-0.608663 0.309464 0)
(-0.651761 0.297528 0)
(-0.687703 0.27819 0)
(-0.716842 0.252685 0)
(-0.739832 0.222248 0)
(-0.757525 0.18802 0)
(-0.770838 0.150941 0)
(-0.780663 0.111741 0)
(-0.787817 0.0709801 0)
(-0.792944 0.0290314 0)
(-0.796482 -0.0138894 0)
(-0.798694 -0.0576207 0)
(-0.799633 -0.102005 0)
(-0.798998 -0.146797 0)
(-0.796155 -0.191557 0)
(-0.790054 -0.235505 0)
(-0.779196 -0.277389 0)
(-0.761639 -0.315375 0)
(-0.735118 -0.347023 0)
(-0.697333 -0.369378 0)
(-0.646437 -0.379273 0)
(-0.581684 -0.373879 0)
(-0.504096 -0.351475 0)
(-0.416952 -0.312309 0)
(-0.325823 -0.259216 0)
(-0.237865 -0.197625 0)
(-0.160276 -0.134609 0)
(-0.0982388 -0.0770122 0)
(-0.0533145 -0.0293816 0)
(-0.0235792 0.00686449 0)
(-0.00556045 0.0324448 0)
(0.00361473 0.0482905 0)
(0.00645859 0.0552459 0)
(0.0052896 0.0535864 0)
(0.00248769 0.0423759 0)
(0.000209258 0.0191569 0)
(-0.000171906 -0.0137872 0)
(-0.00796553 -0.0118306 0)
(-0.0241215 0.0102023 0)
(-0.0484378 0.0435058 0)
(-0.0812325 0.0826413 0)
(-0.123142 0.125391 0)
(-0.174303 0.170825 0)
(-0.233645 0.217346 0)
(-0.298702 0.262105 0)
(-0.366139 0.301647 0)
(-0.432535 0.332912 0)
(-0.494983 0.353887 0)
(-0.551369 0.363768 0)
(-0.600391 0.362776 0)
(-0.641469 0.351855 0)
(-0.674635 0.332384 0)
(-0.700418 0.305933 0)
(-0.719719 0.274089 0)
(-0.733675 0.238312 0)
(-0.743481 0.19982 0)
(-0.750264 0.159522 0)
(-0.755017 0.11805 0)
(-0.758551 0.0757922 0)
(-0.761457 0.0329093 0)
(-0.764173 -0.0105705 0)
(-0.767016 -0.0546709 0)
(-0.770118 -0.0994746 0)
(-0.77339 -0.145046 0)
(-0.776507 -0.191319 0)
(-0.778789 -0.23798 0)
(-0.779069 -0.284322 0)
(-0.775561 -0.329072 0)
(-0.765807 -0.370212 0)
(-0.746779 -0.404864 0)
(-0.715232 -0.429352 0)
(-0.66832 -0.439565 0)
(-0.604466 -0.431709 0)
(-0.52434 -0.403374 0)
(-0.431626 -0.354715 0)
(-0.333156 -0.289381 0)
(-0.237974 -0.214579 0)
(-0.155221 -0.139721 0)
(-0.0912489 -0.0736298 0)
(-0.0474028 -0.0215394 0)
(-0.0204296 0.0158003 0)
(-0.00547239 0.040111 0)
(0.00120482 0.0527766 0)
(0.00267402 0.0543856 0)
(0.00160603 0.044201 0)
(0.000183941 0.0201679 0)
(-0.00107262 -0.00816632 0)
(-0.0144161 0.00340613 0)
(-0.0373675 0.0341424 0)
(-0.069043 0.076045 0)
(-0.109498 0.124132 0)
(-0.158988 0.175945 0)
(-0.216768 0.22951 0)
(-0.28068 0.28187 0)
(-0.347452 0.32921 0)
(-0.413471 0.367863 0)
(-0.475507 0.395198 0)
(-0.531117 0.409969 0)
(-0.578754 0.412208 0)
(-0.617719 0.402915 0)
(-0.648068 0.383715 0)
(-0.670488 0.356552 0)
(-0.686124 0.323425 0)
(-0.696372 0.286172 0)
(-0.70267 0.246317 0)
(-0.706315 0.204987 0)
(-0.70838 0.162916 0)
(-0.7097 0.120529 0)
(-0.710862 0.0779947 0)
(-0.712255 0.0352956 0)
(-0.714191 -0.00766713 0)
(-0.716932 -0.0510368 0)
(-0.720609 -0.0950127 0)
(-0.725328 -0.139807 0)
(-0.731105 -0.185588 0)
(-0.73776 -0.232425 0)
(-0.744749 -0.280175 0)
(-0.750956 -0.328303 0)
(-0.754474 -0.375609 0)
(-0.752468 -0.419919 0)
(-0.741212 -0.457873 0)
(-0.716443 -0.484946 0)
(-0.674158 -0.495885 0)
(-0.611818 -0.485649 0)
(-0.529719 -0.450892 0)
(-0.432059 -0.391676 0)
(-0.327158 -0.3128 0)
(-0.226234 -0.223852 0)
(-0.140481 -0.137186 0)
(-0.0771183 -0.0638261 0)
(-0.0365925 -0.00931431 0)
(-0.0137821 0.0268011 0)
(-0.00262691 0.0471462 0)
(0.00130332 0.0532489 0)
(0.00144692 0.0450183 0)
(0.000288215 0.0209456 0)
(-0.00217977 0.00131251 0)
(-0.0214269 0.0250255 0)
(-0.0510218 0.0650657 0)
(-0.0895007 0.115747 0)
(-0.13655 0.172615 0)
(-0.191812 0.23256 0)
(-0.253589 0.292331 0)
(-0.318876 0.347803 0)
(-0.384003 0.394671 0)
(-0.445452 0.429515 0)
(-0.500418 0.450427 0)
(-0.547043 0.457065 0)
(-0.584445 0.450365 0)
(-0.612652 0.432156 0)
(-0.632462 0.404763 0)
(-0.645239 0.370648 0)
(-0.65263 0.33209 0)
(-0.656297 0.290962 0)
(-0.657693 0.248624 0)
(-0.657939 0.205932 0)
(-0.657826 0.163327 0)
(-0.657851 0.12097 0)
(-0.658284 0.0788259 0)
(-0.659262 0.0367648 0)
(-0.660903 -0.00537312 0)
(-0.663352 -0.0477614 0)
(-0.666702 -0.0905864 0)
(-0.671139 -0.134047 0)
(-0.676888 -0.178369 0)
(-0.684153 -0.223805 0)
(-0.692996 -0.270596 0)
(-0.703144 -0.318844 0)
(-0.713717 -0.368258 0)
(-0.722881 -0.417785 0)
(-0.727543 -0.465175 0)
(-0.723283 -0.50659 0)
(-0.704761 -0.536494 0)
(-0.666728 -0.54815 0)
(-0.605603 -0.534946 0)
(-0.521326 -0.492466 0)
(-0.418852 -0.420875 0)
(-0.308413 -0.326726 0)
(-0.203737 -0.222895 0)
(-0.117978 -0.125407 0)
(-0.0584574 -0.047382 0)
(-0.0236454 0.00623811 0)
(-0.00618999 0.0377574 0)
(0.000679184 0.0503882 0)
(0.00180991 0.0453541 0)
(0.000485812 0.0218732 0)
(-0.00335807 0.0148828 0)
(-0.0283511 0.0528259 0)
(-0.0639649 0.102347 0)
(-0.108202 0.161526 0)
(-0.16027 0.226367 0)
(-0.219094 0.292811 0)
(-0.282154 0.356348 0)
(-0.345934 0.412054 0)
(-0.40673 0.455594 0)
(-0.461377 0.484149 0)
(-0.507646 0.496731 0)
(-0.544383 0.494013 0)
(-0.57149 0.477908 0)
(-0.589798 0.451093 0)
(-0.600829 0.416521 0)
(-0.606458 0.376983 0)
(-0.608567 0.334773 0)
(-0.608762 0.291533 0)
(-0.608226 0.248253 0)
(-0.607705 0.205397 0)
(-0.607592 0.163078 0)
(-0.608025 0.121213 0)
(-0.609 0.0796353 0)
(-0.610452 0.0381679 0)
(-0.612343 -0.00334731 0)
(-0.614713 -0.0450415 0)
(-0.617613 -0.0870218 0)
(-0.621192 -0.129392 0)
(-0.625701 -0.172305 0)
(-0.631477 -0.215997 0)
(-0.638911 -0.260809 0)
(-0.648356 -0.307157 0)
(-0.65991 -0.355414 0)
(-0.673047 -0.405633 0)
(-0.686116 -0.457055 0)
(-0.695868 -0.507414 0)
(-0.697245 -0.552281 0)
(-0.683766 -0.584846 0)
(-0.64879 -0.596548 0)
(-0.587666 -0.578878 0)
(-0.500227 -0.526281 0)
(-0.392693 -0.439518 0)
(-0.2778 -0.32802 0)
(-0.172115 -0.209267 0)
(-0.0902951 -0.103568 0)
(-0.0383226 -0.0252756 0)
(-0.0113379 0.0229052 0)
(-0.000154948 0.0453642 0)
(0.00229698 0.0453524 0)
(0.000720626 0.0231556 0)
(-0.00444357 0.0323921 0)
(-0.0345362 0.0861429 0)
(-0.0751398 0.144929 0)
(-0.12372 0.211877 0)
(-0.178942 0.283352 0)
(-0.239053 0.354222 0)
(-0.300946 0.41893 0)
(-0.36093 0.47217 0)
(-0.415541 0.50997 0)
(-0.46214 0.530365 0)
(-0.4992 0.53345 0)
(-0.526367 0.521003 0)
(-0.544377 0.495941 0)
(-0.554812 0.461704 0)
(-0.559721 0.42166 0)
(-0.561192 0.378627 0)
(-0.560997 0.334617 0)
(-0.560403 0.290812 0)
(-0.560148 0.247721 0)
(-0.560541 0.205408 0)
(-0.56161 0.163711 0)
(-0.563244 0.1224 0)
(-0.565284 0.0812601 0)
(-0.567576 0.0401265 0)
(-0.570016 -0.00111539 0)
(-0.572602 -0.0425308 0)
(-0.575357 -0.0841481 0)
(-0.578342 -0.125981 0)
(-0.581719 -0.168074 0)
(-0.585747 -0.210537 0)
(-0.590829 -0.253595 0)
(-0.597511 -0.297642 0)
(-0.606411 -0.343277 0)
(-0.617999 -0.39121 0)
(-0.632171 -0.441928 0)
(-0.647591 -0.49502 0)
(-0.66093 -0.548205 0)
(-0.666429 -0.596342 0)
(-0.65632 -0.630986 0)
(-0.622513 -0.641228 0)
(-0.559429 -0.616308 0)
(-0.467267 -0.54979 0)
(-0.354325 -0.444119 0)
(-0.236679 -0.31337 0)
(-0.133895 -0.181261 0)
(-0.0609075 -0.0724258 0)
(-0.0200571 -0.000203681 0)
(-0.00226896 0.0369404 0)
(0.00246968 0.044628 0)
(0.000940016 0.0247535 0)
(-0.00528795 0.0532788 0)
(-0.0394213 0.123918 0)
(-0.0836884 0.19144 0)
(-0.134988 0.265066 0)
(-0.191447 0.341493 0)
(-0.250765 0.414566 0)
(-0.309525 0.477992 0)
(-0.364131 0.526476 0)
(-0.411554 0.556716 0)
(-0.449804 0.567807 0)
(-0.47813 0.56104 0)
(-0.497009 0.539341 0)
(-0.507939 0.50655 0)
(-0.513044 0.46665 0)
(-0.514588 0.423103 0)
(-0.514526 0.378428 0)
(-0.514247 0.334109 0)
(-0.514522 0.290759 0)
(-0.51562 0.248418 0)
(-0.517492 0.206846 0)
(-0.519945 0.165729 0)
(-0.522761 0.1248 0)
(-0.52576 0.0838675 0)
(-0.5288 0.0428178 0)
(-0.531795 0.0015902 0)
(-0.534745 -0.0398294 0)
(-0.537674 -0.0814252 0)
(-0.540571 -0.123169 0)
(-0.543492 -0.165029 0)
(-0.546549 -0.206994 0)
(-0.549969 -0.249115 0)
(-0.554147 -0.291588 0)
(-0.559702 -0.334859 0)
(-0.567466 -0.379706 0)
(-0.578296 -0.427186 0)
(-0.592565 -0.478274 0)
(-0.609269 -0.532994 0)
(-0.624962 -0.589008 0)
(-0.633076 -0.640119 0)
(-0.624393 -0.675639 0)
(-0.589299 -0.681707 0)
(-0.521635 -0.645138 0)
(-0.422888 -0.559365 0)
(-0.304675 -0.430472 0)
(-0.187298 -0.279817 0)
(-0.0928412 -0.13895 0)
(-0.0339626 -0.0351872 0)
(-0.00650347 0.0231709 0)
(0.00201232 0.0423109 0)
(0.00111649 0.0264167 0)
(-0.00576991 0.0766372 0)
(-0.0425941 0.164818 0)
(-0.0890373 0.240334 0)
(-0.141391 0.31932 0)
(-0.197304 0.398891 0)
(-0.254113 0.472044 0)
(-0.308342 0.532088 0)
(-0.356694 0.574073 0)
(-0.396695 0.59561 0)
(-0.427073 0.597002 0)
(-0.447866 0.580792 0)
(-0.460299 0.550997 0)
(-0.466432 0.512176 0)
(-0.468632 0.468536 0)
(-0.469044 0.423283 0)
(-0.469228 0.378375 0)
(-0.470048 0.334648 0)
(-0.471787 0.292175 0)
(-0.474353 0.250647 0)
(-0.477498 0.209665 0)
(-0.480959 0.168894 0)
(-0.484541 0.128112 0)
(-0.488119 0.0871954 0)
(-0.491617 0.0460862 0)
(-0.494997 0.00476688 0)
(-0.498294 -0.0367533 0)
(-0.501533 -0.0784496 0)
(-0.504684 -0.120294 0)
(-0.507736 -0.162233 0)
(-0.51069 -0.204201 0)
(-0.513582 -0.246135 0)
(-0.51655 -0.288032 0)
(-0.519932 -0.330045 0)
(-0.524378 -0.372637 0)
(-0.530902 -0.416751 0)
(-0.540721 -0.463844 0)
(-0.554675 -0.515467 0)
(-0.572088 -0.572077 0)
(-0.58928 -0.631053 0)
(-0.598569 -0.684587 0)
(-0.588995 -0.718894 0)
(-0.549533 -0.716421 0)
(-0.474235 -0.66173 0)
(-0.367321 -0.549909 0)
(-0.245324 -0.394013 0)
(-0.133343 -0.226069 0)
(-0.0540405 -0.0858303 0)
(-0.0133502 0.00163809 0)
(0.000773114 0.0372206 0)
(0.00125389 0.0277863 0)
(-0.0058139 0.101334 0)
(-0.0438222 0.207363 0)
(-0.0909229 0.290033 0)
(-0.14276 0.372991 0)
(-0.196606 0.453964 0)
(-0.249627 0.525358 0)
(-0.298486 0.580398 0)
(-0.34032 0.614752 0)
(-0.373278 0.62712 0)
(-0.396802 0.619092 0)
(-0.411644 0.59444 0)
(-0.4196 0.558103 0)
(-0.423015 0.515062 0)
(-0.424192 0.469397 0)
(-0.424905 0.423775 0)
(-0.426192 0.379453 0)
(-0.428415 0.336646 0)
(-0.431488 0.295014 0)
(-0.435129 0.254066 0)
(-0.439043 0.213385 0)
(-0.443012 0.172705 0)
(-0.446922 0.131888 0)
(-0.450728 0.0908824 0)
(-0.454421 0.0496745 0)
(-0.458007 0.00826708 0)
(-0.461544 -0.0333291 0)
(-0.465074 -0.0750996 0)
(-0.468569 -0.117036 0)
(-0.472002 -0.159104 0)
(-0.475324 -0.201243 0)
(-0.478472 -0.243364 0)
(-0.481397 -0.285362 0)
(-0.484142 -0.327162 0)
(-0.486963 -0.368853 0)
(-0.490505 -0.410914 0)
(-0.495937 -0.454485 0)
(-0.504841 -0.501477 0)
(-0.51853 -0.554083 0)
(-0.536527 -0.613153 0)
(-0.554579 -0.675357 0)
(-0.563433 -0.730262 0)
(-0.550118 -0.759734 0)
(-0.502591 -0.741921 0)
(-0.416533 -0.660277 0)
(-0.301059 -0.515025 0)
(-0.179319 -0.331211 0)
(-0.0805157 -0.154851 0)
(-0.0231572 -0.0304579 0)
(-0.00128139 0.0280252 0)
(0.00137166 0.0284852 0)
(-0.00539669 0.126126 0)
(-0.0430496 0.250044 0)
(-0.0893642 0.339047 0)
(-0.139304 0.424653 0)
(-0.189884 0.505506 0)
(-0.238267 0.573697 0)
(-0.281404 0.622647 0)
(-0.316936 0.648838 0)
(-0.343636 0.65217 0)
(-0.361598 0.635524 0)
(-0.37213 0.603784 0)
(-0.377363 0.562556 0)
(-0.379652 0.516913 0)
(-0.380996 0.470509 0)
(-0.382676 0.425307 0)
(-0.385226 0.381863 0)
(-0.388628 0.339897 0)
(-0.392598 0.298833 0)
(-0.396814 0.258149 0)
(-0.401038 0.217506 0)
(-0.405144 0.176738 0)
(-0.409106 0.135794 0)
(-0.412946 0.0946745 0)
(-0.416693 0.0533887 0)
(-0.420373 0.011941 0)
(-0.424059 -0.0296683 0)
(-0.427799 -0.0714388 0)
(-0.43158 -0.113386 0)
(-0.435378 -0.155503 0)
(-0.43915 -0.197766 0)
(-0.442814 -0.240112 0)
(-0.446257 -0.282434 0)
(-0.449354 -0.324574 0)
(-0.452047 -0.36639 0)
(-0.454504 -0.407903 0)
(-0.457369 -0.44961 0)
(-0.461984 -0.492899 0)
(-0.470317 -0.540272 0)
(-0.484096 -0.594677 0)
(-0.502811 -0.657138 0)
(-0.521088 -0.722703 0)
(-0.527416 -0.776739 0)
(-0.50665 -0.795234 0)
(-0.446833 -0.752046 0)
(-0.347692 -0.63252 0)
(-0.225967 -0.448164 0)
(-0.112336 -0.242556 0)
(-0.0364017 -0.0761147 0)
(-0.00422507 0.0132236 0)
(0.00146122 0.0281038 0)
(-0.00454297 0.149773 0)
(-0.0403688 0.291426 0)
(-0.0846036 0.386055 0)
(-0.131506 0.473163 0)
(-0.177948 0.552681 0)
(-0.221224 0.616675 0)
(-0.258662 0.658973 0)
(-0.288427 0.677006 0)
(-0.309861 0.671904 0)
(-0.323584 0.647772 0)
(-0.331267 0.610406 0)
(-0.335128 0.565794 0)
(-0.337315 0.518801 0)
(-0.339393 0.47246 0)
(-0.342154 0.427993 0)
(-0.345737 0.385363 0)
(-0.349906 0.343967 0)
(-0.354326 0.303155 0)
(-0.358731 0.262472 0)
(-0.362981 0.221696 0)
(-0.367043 0.180761 0)
(-0.370951 0.139677 0)
(-0.374766 0.0984668 0)
(-0.378532 0.0571453 0)
(-0.382274 0.0157068 0)
(-0.386059 -0.0258618 0)
(-0.389946 -0.067572 0)
(-0.393926 -0.109457 0)
(-0.397985 -0.151533 0)
(-0.4021 -0.193808 0)
(-0.406215 -0.236265 0)
(-0.410229 -0.278843 0)
(-0.413987 -0.321412 0)
(-0.417297 -0.363771 0)
(-0.420012 -0.405694 0)
(-0.422229 -0.447132 0)
(-0.424612 -0.48865 0)
(-0.428731 -0.532022 0)
(-0.436993 -0.580547 0)
(-0.451464 -0.637993 0)
(-0.471114 -0.705012 0)
(-0.488541 -0.773416 0)
(-0.489224 -0.821988 0)
(-0.456277 -0.819379 0)
(-0.380085 -0.736971 0)
(-0.267964 -0.568431 0)
(-0.146934 -0.345993 0)
(-0.0533998 -0.137547 0)
(-0.00822355 -0.00881767 0)
(0.00147456 0.026186 0)
(-0.00331534 0.171133 0)
(-0.0359818 0.330211 0)
(-0.0770337 0.429948 0)
(-0.120011 0.517661 0)
(-0.161742 0.594987 0)
(-0.199742 0.654233 0)
(-0.231761 0.689792 0)
(-0.256457 0.700101 0)
(-0.27365 0.687487 0)
(-0.284323 0.657136 0)
(-0.290302 0.615525 0)
(-0.293696 0.568748 0)
(-0.296305 0.521248 0)
(-0.299241 0.475355 0)
(-0.302893 0.431618 0)
(-0.307151 0.389568 0)
(-0.311698 0.348443 0)
(-0.316244 0.307628 0)
(-0.320619 0.266787 0)
(-0.324775 0.225812 0)
(-0.328744 0.184706 0)
(-0.332595 0.14351 0)
(-0.336398 0.102253 0)
(-0.340196 0.060937 0)
(-0.344003 0.0195445 0)
(-0.347875 -0.0219503 0)
(-0.351877 -0.0635663 0)
(-0.356004 -0.105349 0)
(-0.36024 -0.147327 0)
(-0.364581 -0.189531 0)
(-0.368998 -0.231977 0)
(-0.373429 -0.274657 0)
(-0.377759 -0.31751 0)
(-0.381799 -0.360385 0)
(-0.3853 -0.40302 0)
(-0.388037 -0.445101 0)
(-0.390058 -0.486529 0)
(-0.392118 -0.528031 0)
(-0.39613 -0.572011 0)
(-0.405005 -0.622877 0)
(-0.4209 -0.685149 0)
(-0.441422 -0.757826 0)
(-0.455897 -0.826647 0)
(-0.4463 -0.860799 0)
(-0.395676 -0.821455 0)
(-0.300757 -0.683165 0)
(-0.180762 -0.45949 0)
(-0.0736029 -0.215109 0)
(-0.0135232 -0.039884 0)
(0.00139012 0.0222509 0)
(-0.00180274 0.189227 0)
(-0.0301601 0.365283 0)
(-0.0671279 0.469841 0)
(-0.105531 0.55755 0)
(-0.14222 0.632182 0)
(-0.17499 0.686539 0)
(-0.202013 0.715665 0)
(-0.22238 0.718996 0)
(-0.236266 0.699959 0)
(-0.244848 0.664642 0)
(-0.249928 0.619966 0)
(-0.253363 0.571913 0)
(-0.256558 0.524386 0)
(-0.260225 0.479033 0)
(-0.264472 0.43586 0)
(-0.269068 0.394124 0)
(-0.273713 0.353028 0)
(-0.2782 0.312056 0)
(-0.282453 0.270995 0)
(-0.286492 0.229821 0)
(-0.290382 0.188581 0)
(-0.294202 0.14732 0)
(-0.298018 0.106057 0)
(-0.301866 0.0647805 0)
(-0.305749 0.0234599 0)
(-0.309707 -0.017941 0)
(-0.313814 -0.0594452 0)
(-0.318069 -0.101107 0)
(-0.322448 -0.142964 0)
(-0.326953 -0.185054 0)
(-0.331572 -0.227416 0)
(-0.336274 -0.270076 0)
(-0.340993 -0.313034 0)
(-0.3456 -0.356224 0)
(-0.349875 -0.399464 0)
(-0.35351 -0.442414 0)
(-0.356218 -0.484659 0)
(-0.35805 -0.526096 0)
(-0.359967 -0.567821 0)
(-0.364389 -0.613288 0)
(-0.374766 -0.668375 0)
(-0.392786 -0.737752 0)
(-0.413258 -0.816098 0)
(-0.420813 -0.878731 0)
(-0.394578 -0.882527 0)
(-0.321452 -0.784862 0)
(-0.210254 -0.575985 0)
(-0.0954133 -0.306761 0)
(-0.0203488 -0.0816517 0)
(0.00125021 0.0158149 0)
(-0.000109345 0.203276 0)
(-0.0232101 0.395718 0)
(-0.0553842 0.505061 0)
(-0.0887642 0.592452 0)
(-0.120271 0.664223 0)
(-0.147987 0.713891 0)
(-0.170488 0.737189 0)
(-0.187216 0.734485 0)
(-0.198569 0.710165 0)
(-0.205766 0.67102 0)
(-0.210445 0.624212 0)
(-0.214136 0.575469 0)
(-0.217865 0.528126 0)
(-0.222036 0.483239 0)
(-0.22659 0.440416 0)
(-0.23127 0.39877 0)
(-0.235842 0.357551 0)
(-0.240185 0.316356 0)
(-0.244294 0.275075 0)
(-0.248227 0.23374 0)
(-0.252061 0.192413 0)
(-0.255868 0.151131 0)
(-0.259707 0.109896 0)
(-0.263611 0.0686861 0)
(-0.267569 0.0274584 0)
(-0.27161 -0.0138322 0)
(-0.27582 -0.0552099 0)
(-0.280204 -0.0967395 0)
(-0.284723 -0.138461 0)
(-0.289382 -0.18042 0)
(-0.294172 -0.222664 0)
(-0.299079 -0.265238 0)
(-0.304068 -0.30818 0)
(-0.309065 -0.351494 0)
(-0.313923 -0.395101 0)
(-0.318385 -0.438761 0)
(-0.322084 -0.482028 0)
(-0.324691 -0.524383 0)
(-0.326345 -0.565843 0)
(-0.328404 -0.608263 0)
(-0.334014 -0.656781 0)
(-0.346988 -0.718935 0)
(-0.36732 -0.797655 0)
(-0.38494 -0.878272 0)
(-0.379056 -0.92018 0)
(-0.329119 -0.868406 0)
(-0.232658 -0.688464 0)
(-0.116675 -0.40851 0)
(-0.0287006 -0.13527 0)
(0.00111717 0.00636645 0)
(0.00165515 0.212722 0)
(-0.0154482 0.420784 0)
(-0.0422848 0.535115 0)
(-0.0703557 0.622158 0)
(-0.0966632 0.691185 0)
(-0.119568 0.736638 0)
(-0.138004 0.754924 0)
(-0.151679 0.74723 0)
(-0.161091 0.718733 0)
(-0.167375 0.676737 0)
(-0.171913 0.628492 0)
(-0.175889 0.579404 0)
(-0.180001 0.532286 0)
(-0.184438 0.487719 0)
(-0.189066 0.44505 0)
(-0.193663 0.403343 0)
(-0.198068 0.361925 0)
(-0.202234 0.3205 0)
(-0.2062 0.279033 0)
(-0.210039 0.237585 0)
(-0.213825 0.196216 0)
(-0.21762 0.154947 0)
(-0.221476 0.113769 0)
(-0.225424 0.0726491 0)
(-0.22945 0.0315354 0)
(-0.233563 -0.00962516 0)
(-0.237872 -0.050857 0)
(-0.242392 -0.0922374 0)
(-0.247063 -0.13381 0)
(-0.251889 -0.175625 0)
(-0.256861 -0.217734 0)
(-0.26197 -0.26019 0)
(-0.267194 -0.303052 0)
(-0.272493 -0.346366 0)
(-0.27778 -0.390135 0)
(-0.282879 -0.434241 0)
(-0.287484 -0.478354 0)
(-0.29117 -0.521881 0)
(-0.293609 -0.564235 0)
(-0.295179 -0.60583 0)
(-0.29792 -0.649989 0)
(-0.30587 -0.704354 0)
(-0.322486 -0.777411 0)
(-0.343803 -0.865656 0)
(-0.352668 -0.937141 0)
(-0.324564 -0.931409 0)
(-0.246454 -0.79106 0)
(-0.135334 -0.51531 0)
(-0.0381883 -0.200511 0)
(0.000968685 -0.00656387 0)
(0.00338481 0.217256 0)
(-0.00718345 0.439895 0)
(-0.0282782 0.559662 0)
(-0.0508683 0.646582 0)
(-0.0720379 0.713214 0)
(-0.0903819 0.755123 0)
(-0.10515 0.769346 0)
(-0.116228 0.757742 0)
(-0.124116 0.726093 0)
(-0.12977 0.682057 0)
(-0.134267 0.632868 0)
(-0.138455 0.583611 0)
(-0.14277 0.536663 0)
(-0.147269 0.492263 0)
(-0.151806 0.449599 0)
(-0.156213 0.407744 0)
(-0.160402 0.366109 0)
(-0.164378 0.324482 0)
(-0.1682 0.282874 0)
(-0.171944 0.241359 0)
(-0.175674 0.199985 0)
(-0.179442 0.15876 0)
(-0.183296 0.117662 0)
(-0.18727 0.0766536 0)
(-0.19135 0.0356786 0)
(-0.19552 -0.00532518 0)
(-0.199919 -0.0463852 0)
(-0.20458 -0.0875909 0)
(-0.209416 -0.128994 0)
(-0.214431 -0.170647 0)
(-0.219613 -0.212603 0)
(-0.22495 -0.254922 0)
(-0.230427 -0.297669 0)
(-0.236018 -0.340914 0)
(-0.241672 -0.384712 0)
(-0.247277 -0.429044 0)
(-0.252618 -0.473722 0)
(-0.257323 -0.518263 0)
(-0.26092 -0.561901 0)
(-0.263174 -0.604125 0)
(-0.264962 -0.646355 0)
(-0.269372 -0.69453 0)
(-0.281191 -0.759328 0)
(-0.301609 -0.846843 0)
(-0.319366 -0.93781 0)
(-0.309814 -0.973951 0)
(-0.251394 -0.879656 0)
(-0.14991 -0.622028 0)
(-0.0480811 -0.275614 0)
(0.000664477 -0.0234207 0)
(0.00493813 0.216688 0)
(0.00127898 0.452709 0)
(-0.013764 0.578441 0)
(-0.0307829 0.665709 0)
(-0.0469077 0.730476 0)
(-0.0609173 0.769648 0)
(-0.072326 0.780828 0)
(-0.0811333 0.766379 0)
(-0.087762 0.732512 0)
(-0.0929287 0.687098 0)
(-0.0973844 0.637307 0)
(-0.101673 0.587949 0)
(-0.106028 0.54108 0)
(-0.110431 0.496711 0)
(-0.11476 0.453955 0)
(-0.118911 0.411916 0)
(-0.122855 0.370079 0)
(-0.126627 0.328292 0)
(-0.130294 0.286591 0)
(-0.133927 0.245048 0)
(-0.137581 0.203702 0)
(-0.1413 0.162546 0)
(-0.145128 0.121552 0)
(-0.149107 0.080679 0)
(-0.153224 0.0398729 0)
(-0.157433 -0.000936675 0)
(-0.161906 -0.0417947 0)
(-0.16671 -0.0827904 0)
(-0.171725 -0.123993 0)
(-0.176947 -0.165456 0)
(-0.182367 -0.207237 0)
(-0.187969 -0.249395 0)
(-0.193738 -0.291999 0)
(-0.199655 -0.335133 0)
(-0.205684 -0.378881 0)
(-0.211753 -0.423291 0)
(-0.217716 -0.468293 0)
(-0.223297 -0.513562 0)
(-0.228056 -0.558401 0)
(-0.231511 -0.601897 0)
(-0.233711 -0.644039 0)
(-0.236444 -0.688433 0)
(-0.24415 -0.745135 0)
(-0.261206 -0.826516 0)
(-0.282793 -0.927148 0)
(-0.287521 -0.99796 0)
(-0.248248 -0.952003 0)
(-0.159665 -0.724165 0)
(-0.0575459 -0.357815 0)
(-5.06346e-06 -0.0446298 0)
(0.00616021 0.211248 0)
(0.00957605 0.458785 0)
(0.000933373 0.591364 0)
(-0.0104998 0.679549 0)
(-0.0216793 0.743123 0)
(-0.0315301 0.780442 0)
(-0.0397937 0.789625 0)
(-0.0465315 0.773365 0)
(-0.0520409 0.738127 0)
(-0.0567655 0.691886 0)
(-0.0611307 0.641734 0)
(-0.0654055 0.592287 0)
(-0.0696656 0.545396 0)
(-0.0738582 0.500951 0)
(-0.0779004 0.458043 0)
(-0.0817494 0.415818 0)
(-0.0854202 0.373814 0)
(-0.0889674 0.331914 0)
(-0.0924582 0.290164 0)
(-0.0959544 0.248631 0)
(-0.0995054 0.207341 0)
(-0.10315 0.166282 0)