/*--------------------------------*- C++ -*----------------------------------*\
  =========                 |
  \\      /  F ield         | OpenFOAM: The Open Source CFD Toolbox
   \\    /   O peration     | Website:  https://openfoam.org
    \\  /    A nd           | Version:  7
     \\/     M anipulation  |
\*---------------------------------------------------------------------------*/
FoamFile
{
    version     2.0;
    format      ascii;
    class       volScalarField;
    location    "350";
    object      p;
}
// * * * * * * * * * * * * * * * * * * * * * * * * * * * * * * * * * * * * * //

dimensions      [0 2 -2 0 0 0 0];

internalField   nonuniform List<scalar> 
2500
(
7.60816e-07
-8.53611e-05
-0.00040223
-0.000947332
-0.00165698
-0.00248292
-0.00339372
-0.00436884
-0.00539414
-0.00645778
-0.00754687
-0.00864523
-0.00973202
-0.0107813
-0.0117623
-0.0126402
-0.0133776
-0.0139362
-0.0142798
-0.0143771
-0.0142047
-0.0137512
-0.0130198
-0.0120316
-0.0108267
-0.00946461
-0.00802264
-0.00659262
-0.00527564
-0.00417499
-0.00338799
-0.00299764
-0.00306471
-0.00362159
-0.00466851
-0.00617288
-0.00807175
-0.0102775
-0.0126862
-0.0151855
-0.017664
-0.0200182
-0.0221588
-0.0240127
-0.0255238
-0.0266524
-0.0273755
-0.027689
-0.0276286
-0.0273833
8.60038e-05
-6.47455e-06
-0.000296143
-0.000783841
-0.00141765
-0.00215896
-0.00298265
-0.00387176
-0.00481404
-0.00579882
-0.00681445
-0.00784638
-0.00887605
-0.00988038
-0.0108318
-0.011699
-0.0124476
-0.0130425
-0.0134493
-0.0136376
-0.0135838
-0.0132747
-0.0127103
-0.0119068
-0.0108987
-0.00973887
-0.00849706
-0.00725787
-0.00611532
-0.00516622
-0.00450235
-0.00420225
-0.00432354
-0.00489674
-0.00592163
-0.00736663
-0.00917145
-0.0112525
-0.0135107
-0.015841
-0.01814
-0.0203137
-0.0222824
-0.0239834
-0.0253708
-0.0264147
-0.0270998
-0.0274202
-0.0273828
-0.0271369
0.000414352
0.000272352
-3.12156e-05
-0.000490489
-0.00106828
-0.00173802
-0.0024829
-0.00329181
-0.00415657
-0.00506962
-0.00602198
-0.00700186
-0.00799359
-0.00897718
-0.00992812
-0.0108177
-0.0116139
-0.0122824
-0.0127891
-0.013102
-0.0131947
-0.0130497
-0.0126619
-0.0120414
-0.0112163
-0.0102335
-0.00915703
-0.00806679
-0.007053
-0.0062098
-0.00562739
-0.00538361
-0.00553602
-0.00611544
-0.00712212
-0.00852499
-0.0102644
-0.012258
-0.0144086
-0.016614
-0.0187757
-0.0208056
-0.0226321
-0.0242016
-0.0254786
-0.0264429
-0.0270858
-0.0273973
-0.027354
-0.0270796
0.0009957
0.000760022
0.000396202
-7.34631e-05
-0.000629568
-0.00125845
-0.00195249
-0.00270806
-0.003523
-0.00439462
-0.00531808
-0.00628522
-0.00728362
-0.00829598
-0.00929981
-0.0102674
-0.0111664
-0.0119609
-0.0126133
-0.0130869
-0.0133495
-0.0133768
-0.0131566
-0.0126925
-0.0120066
-0.0111416
-0.0101588
-0.00913688
-0.00816695
-0.00734549
-0.00676628
-0.00651148
-0.00664297
-0.00719532
-0.00817131
-0.00954093
-0.011244
-0.0131965
-0.0152991
-0.0174474
-0.0195421
-0.021497
-0.0232436
-0.0247343
-0.0259406
-0.02685
-0.027459
-0.0277554
-0.0276995
-0.0274062
0.00176086
0.00139649
0.000938231
0.000431636
-0.000126634
-0.000738205
-0.001406
-0.00213514
-0.00293076
-0.00379621
-0.0047317
-0.0057333
-0.00679193
-0.00789257
-0.00901365
-0.0101267
-0.0111968
-0.0121836
-0.0130431
-0.0137311
-0.0142067
-0.0144367
-0.0144004
-0.0140934
-0.0135317
-0.0127546
-0.0118216
-0.0108121
-0.00982019
-0.0089476
-0.0082952
-0.00795332
-0.00799229
-0.00845445
-0.00934876
-0.010649
-0.0122961
-0.0142044
-0.0162712
-0.0183876
-0.0204499
-0.0223691
-0.0240767
-0.025527
-0.0266962
-0.0275771
-0.0281711
-0.028468
-0.0284251
-0.0281498
0.00263226
0.00211402
0.00153813
0.000976584
0.000397963
-0.000217535
-0.000884844
-0.0016189
-0.00243301
-0.00333724
-0.00433738
-0.00543398
-0.00662114
-0.00788539
-0.00920469
-0.0105479
-0.0118752
-0.0131387
-0.0142857
-0.0152614
-0.0160136
-0.0164981
-0.0166838
-0.0165568
-0.0161256
-0.0154257
-0.0145144
-0.0134719
-0.0123961
-0.0113956
-0.010581
-0.0100546
-0.00989965
-0.0101714
-0.0108904
-0.0120391
-0.0135635
-0.0153793
-0.0173811
-0.0194549
-0.0214904
-0.0233922
-0.0250876
-0.0265292
-0.0276939
-0.0285771
-0.0291841
-0.029509
-0.0295143
-0.0292964
0.00352499
0.00283645
0.00212837
0.00149944
0.000884703
0.000243272
-0.000453273
-0.00123058
-0.00211067
-0.00311077
-0.00424252
-0.00551084
-0.00691251
-0.00843455
-0.0100529
-0.0117315
-0.013423
-0.0150696
-0.0166067
-0.0179663
-0.0190826
-0.0198979
-0.020368
-0.0204677
-0.0201951
-0.0195795
-0.0186747
-0.01756
-0.0163366
-0.015121
-0.0140355
-0.0131981
-0.0127103
-0.0126471
-0.0130478
-0.0139111
-0.0151951
-0.0168216
-0.0186862
-0.0206705
-0.0226565
-0.0245395
-0.0262377
-0.0276968
-0.0288896
-0.0298106
-0.0304654
-0.0308519
-0.030941
-0.0308142
0.00434355
0.00347584
0.00262781
0.00192284
0.00125705
0.000565613
-0.000194745
-0.00106113
-0.00206476
-0.00323024
-0.00457507
-0.00610827
-0.00782851
-0.009722
-0.0117608
-0.0139019
-0.0160877
-0.0182482
-0.020304
-0.0221713
-0.0237678
-0.0250193
-0.025866
-0.0262674
-0.0262082
-0.0257069
-0.0248103
-0.0235943
-0.0221615
-0.0206355
-0.0191519
-0.0178477
-0.016849
-0.0162579
-0.0161422
-0.0165275
-0.0173933
-0.0186769
-0.0202804
-0.0220845
-0.0239636
-0.0258008
-0.0275004
-0.028995
-0.0302465
-0.0312421
-0.0319834
-0.0324683
-0.0326754
-0.0326674
0.00498197
0.00393275
0.00294222
0.00215465
0.00142213
0.000653434
-0.000210815
-0.00121986
-0.00241447
-0.00382684
-0.00548021
-0.00738727
-0.00954762
-0.0119453
-0.0145465
-0.0172992
-0.0201336
-0.0229643
-0.0256949
-0.028223
-0.0304468
-0.0322722
-0.0336195
-0.0344295
-0.0346682
-0.0343382
-0.0334744
-0.0321449
-0.0304503
-0.0285191
-0.0265
-0.0245518
-0.0228298
-0.0214722
-0.0205866
-0.0202377
-0.020441
-0.0211611
-0.0223174
-0.0237962
-0.0254662
-0.0271968
-0.028873
-0.0304071
-0.0317415
-0.0328474
-0.0337148
-0.0343363
-0.0346937
-0.0348272
0.00532555
0.00409829
0.00296658
0.00209034
0.00127336
0.000396096
-0.000617966
-0.00183081
-0.00329313
-0.00504486
-0.00711489
-0.00951898
-0.0122567
-0.0153084
-0.0186329
-0.0221669
-0.0258259
-0.0295071
-0.0330944
-0.0364636
-0.0394902
-0.0420561
-0.0440581
-0.045413
-0.046064
-0.0459912
-0.0452127
-0.0437827
-0.0417947
-0.0393781
-0.0366923
-0.0339173
-0.0312414
-0.028846
-0.0268892
-0.0254902
-0.0247172
-0.0245799
-0.0250304
-0.0259718
-0.0272737
-0.0287918
-0.0303874
-0.0319432
-0.0333724
-0.0346187
-0.0356504
-0.0364464
-0.036985
-0.0372799
0.00525417
0.00385752
0.00258877
0.00161708
0.000694987
-0.000326582
-0.001542
-0.00302654
-0.00484118
-0.0070338
-0.00963879
-0.0126744
-0.0161392
-0.0200084
-0.0242315
-0.028732
-0.0334084
-0.0381381
-0.0427819
-0.0471913
-0.051215
-0.0547077
-0.0575381
-0.059596
-0.0607967
-0.0610935
-0.0604823
-0.0589968
-0.0567173
-0.0537678
-0.0503127
-0.0465495
-0.0426982
-0.0389866
-0.0356323
-0.0328233
-0.0306996
-0.0293378
-0.0287447
-0.0288589
-0.0295632
-0.0307044
-0.0321172
-0.0336463
-0.0351624
-0.0365685
-0.0377977
-0.038804
-0.0395542
-0.0400299
0.00464698
0.0030943
0.00169464
0.000619306
-0.000431796
-0.00163754
-0.00311059
-0.00493989
-0.00719713
-0.00993829
-0.0132031
-0.0170116
-0.0213603
-0.0262175
-0.0315218
-0.037181
-0.0430742
-0.0490556
-0.0549604
-0.0606117
-0.0658291
-0.0704365
-0.0742722
-0.0771959
-0.0790939
-0.0798889
-0.0795521
-0.0780899
-0.0755637
-0.0720842
-0.0678117
-0.0629525
-0.0577511
-0.0524784
-0.047414
-0.0428247
-0.0389399
-0.035928
-0.0338785
-0.0327925
-0.0325877
-0.0331148
-0.034184
-0.0355948
-0.0371616
-0.03873
-0.0401813
-0.0414304
-0.0424225
-0.0431002
0.00338841
0.00169726
0.000174324
-0.00101454
-0.00222145
-0.00365445
-0.00544448
-0.0076945
-0.0104871
-0.0138866
-0.0179376
-0.0226612
-0.0280503
-0.0340648
-0.0406295
-0.047634
-0.0549347
-0.0623593
-0.0697139
-0.0767907
-0.0833771
-0.0892652
-0.0942621
-0.0981976
-0.10093
-0.102351
-0.102408
-0.101076
-0.098392
-0.0944465
-0.0893842
-0.0834068
-0.0767693
-0.0697732
-0.0627529
-0.0560545
-0.0500084
-0.0448972
-0.0409242
-0.038189
-0.0366775
-0.0362689
-0.0367606
-0.0379049
-0.039447
-0.0411559
-0.042841
-0.0443605
-0.0456251
-0.0465292
0.00137488
-0.000433425
-0.0020708
-0.00338448
-0.00477602
-0.00648095
-0.00864816
-0.0113946
-0.0148141
-0.0189787
-0.0239375
-0.0297116
-0.0362883
-0.0436165
-0.0516045
-0.0601196
-0.0689919
-0.0780191
-0.0869746
-0.0956173
-0.103702
-0.110989
-0.117256
-0.122307
-0.125975
-0.128128
-0.12869
-0.127608
-0.124892
-0.120604
-0.114864
-0.107852
-0.0998147
-0.0910629
-0.0819657
-0.072936
-0.0644032
-0.0567773
-0.0504039
-0.0455218
-0.0422299
-0.0404762
-0.040072
-0.0407312
-0.0421218
-0.0439166
-0.0458293
-0.0476395
-0.0492076
-0.0503669
-0.00147828
-0.00337915
-0.00512091
-0.00657143
-0.00817696
-0.010198
-0.0128006
-0.0161154
-0.0202468
-0.0252747
-0.0312514
-0.0381959
-0.0460876
-0.0548611
-0.0644039
-0.0745575
-0.0851207
-0.0958573
-0.106506
-0.11679
-0.126433
-0.135167
-0.142746
-0.148954
-0.153605
-0.15655
-0.157699
-0.156979
-0.154371
-0.149908
-0.143675
-0.135818
-0.126553
-0.116171
-0.105048
-0.0936336
-0.0824363
-0.071989
-0.0627961
-0.0552722
-0.0496819
-0.0460977
-0.0443917
-0.0442659
-0.0453146
-0.0470982
-0.049208
-0.0513191
-0.0532215
-0.0546684
-0.00523038
-0.00719641
-0.00903113
-0.0106301
-0.0124777
-0.0148561
-0.0179469
-0.0218939
-0.0268116
-0.0327861
-0.0398714
-0.048082
-0.0573858
-0.0676992
-0.0788846
-0.090752
-0.103065
-0.11555
-0.127909
-0.139832
-0.151013
-0.161161
-0.170013
-0.177343
-0.182958
-0.1867
-0.18847
-0.188193
-0.185822
-0.181365
-0.17487
-0.166438
-0.156234
-0.144507
-0.131598
-0.117953
-0.104122
-0.0907318
-0.0784393
-0.0678564
-0.0594619
-0.0535198
-0.0500305
-0.0487355
-0.049178
-0.0508002
-0.0530455
-0.0554533
-0.0577188
-0.0594891
-0.00991
-0.0119114
-0.0138259
-0.0155833
-0.0176978
-0.0204689
-0.0240923
-0.0287234
-0.0344854
-0.0414691
-0.0497275
-0.0592675
-0.0700418
-0.0819434
-0.0948045
-0.108399
-0.122453
-0.136651
-0.150659
-0.164136
-0.176752
-0.1882
-0.198211
-0.206556
-0.213046
-0.217528
-0.219902
-0.220101
-0.218064
-0.213777
-0.207255
-0.198553
-0.187776
-0.175104
-0.160813
-0.145301
-0.129103
-0.11289
-0.097433
-0.0835356
-0.0719211
-0.0631095
-0.057313
-0.0543907
-0.0538853
-0.0551341
-0.0574139
-0.0600951
-0.0627478
-0.0648787
-0.0155112
-0.0175164
-0.0194954
-0.0214179
-0.0238184
-0.0270094
-0.031198
-0.0365492
-0.0431931
-0.0512227
-0.0606872
-0.0715818
-0.0838396
-0.0973255
-0.111837
-0.127108
-0.142822
-0.158626
-0.17415
-0.189024
-0.202903
-0.215473
-0.226466
-0.235661
-0.242886
-0.248
-0.25091
-0.25157
-0.249914
-0.245918
-0.239572
-0.230888
-0.219914
-0.206752
-0.191589
-0.174733
-0.156649
-0.137984
-0.119562
-0.102331
-0.0872549
-0.075155
-0.0665403
-0.0614873
-0.0596222
-0.0602195
-0.0623862
-0.0652925
-0.0683474
-0.0708762
-0.0219919
-0.0239678
-0.0259933
-0.0280831
-0.0307815
-0.0344087
-0.0391806
-0.0452692
-0.0528087
-0.0618917
-0.0725599
-0.0847931
-0.0985001
-0.113514
-0.129593
-0.146429
-0.163664
-0.180905
-0.197752
-0.213815
-0.228739
-0.242211
-0.253974
-0.263824
-0.271611
-0.277216
-0.280558
-0.281622
-0.280346
-0.276704
-0.270675
-0.26224
-0.251399
-0.238179
-0.222674
-0.205075
-0.185733
-0.165202
-0.144273
-0.123964
-0.105431
-0.089799
-0.07794
-0.0702568
-0.0665725
-0.0661775
-0.0680321
-0.0710843
-0.0745437
-0.0775044
-0.0292741
-0.031187
-0.0332382
-0.0354914
-0.0384903
-0.0425576
-0.0479144
-0.0547368
-0.0631601
-0.073273
-0.0851064
-0.098621
-0.113697
-0.130134
-0.147647
-0.165888
-0.184455
-0.202924
-0.220868
-0.237884
-0.253615
-0.267757
-0.280069
-0.290373
-0.298542
-0.304487
-0.308145
-0.309527
-0.308588
-0.305309
-0.299668
-0.291631
-0.281164
-0.268238
-0.252859
-0.235103
-0.215177
-0.19349
-0.17072
-0.147853
-0.126145
-0.106979
-0.0916125
-0.0808674
-0.0748954
-0.0731193
-0.0744116
-0.0774955
-0.0813447
-0.0847646
-0.0372469
-0.039063
-0.0411161
-0.0435221
-0.0468138
-0.0513113
-0.057237
-0.0647678
-0.074037
-0.085126
-0.0980517
-0.112753
-0.129079
-0.146792
-0.165569
-0.185018
-0.204702
-0.224168
-0.242971
-0.260701
-0.277005
-0.291596
-0.304255
-0.314827
-0.323216
-0.329359
-0.333219
-0.334823
-0.334154
-0.331204
-0.325959
-0.318385
-0.308431
-0.296034
-0.281134
-0.263707
-0.24382
-0.221707
-0.197869
-0.17316
-0.148822
-0.126395
-0.107483
-0.0933816
-0.0846969
-0.0811298
-0.081566
-0.0845303
-0.0887341
-0.0926311
-0.0457713
-0.0474575
-0.0494857
-0.0520264
-0.0555923
-0.0604957
-0.0669568
-0.0751495
-0.0852018
-0.097185
-0.1111
-0.12686
-0.144285
-0.1631
-0.182943
-0.203387
-0.223963
-0.244194
-0.263625
-0.281848
-0.298519
-0.313369
-0.326203
-0.336893
-0.345367
-0.351592
-0.355552
-0.35729
-0.356815
-0.354134
-0.349247
-0.342129
-0.332732
-0.320979
-0.306774
-0.290019
-0.270662
-0.248769
-0.224632
-0.198898
-0.172668
-0.147509
-0.125274
-0.107719
-0.0959987
-0.090248
-0.089506
-0.092165
-0.0966654
-0.101046
-0.0546869
-0.0562118
-0.0581856
-0.0608356
-0.0646459
-0.0699167
-0.0768625
-0.0856508
-0.0964011
-0.109173
-0.123947
-0.140615
-0.158966
-0.17869
-0.199392
-0.220613
-0.24186
-0.262641
-0.282495
-0.301021
-0.317888
-0.332847
-0.345727
-0.356423
-0.364887
-0.371107
-0.375089
-0.376887
-0.376535
-0.374053
-0.369458
-0.362744
-0.353875
-0.342781
-0.329353
-0.313456
-0.294956
-0.273777
-0.250008
-0.224046
-0.196759
-0.169595
-0.144508
-0.123634
-0.10871
-0.100445
-0.0981988
-0.100339
-0.105055
-0.109911
-0.0638193
-0.0651542
-0.0670425
-0.069769
-0.073783
-0.0793695
-0.0867337
-0.0960337
-0.107378
-0.120812
-0.136299
-0.153707
-0.172797
-0.193231
-0.214585
-0.236375
-0.25809
-0.279231
-0.299337
-0.318015
-0.334949
-0.349911
-0.362749
-0.373379
-0.381772
-0.387933
-0.391885
-0.393689
-0.393399
-0.391048
-0.386671
-0.380282
-0.371867
-0.361372
-0.348703
-0.333716
-0.316232
-0.29608
-0.273177
-0.247673
-0.220148
-0.191806
-0.164537
-0.140714
-0.122611
-0.111606
-0.107554
-0.108947
-0.113776
-0.119087
-0.0729889
-0.0741088
-0.0758795
-0.0786431
-0.0828104
-0.0886486
-0.096351
-0.106064
-0.117883
-0.13184
-0.14788
-0.16585
-0.18549
-0.206437
-0.228244
-0.250412
-0.272419
-0.293762
-0.313984
-0.332701
-0.349616
-0.364515
-0.377262
-0.38779
-0.396083
-0.402158
-0.406049
-0.407824
-0.407551
-0.405272
-0.401041
-0.394891
-0.386831
-0.376838
-0.364841
-0.350711
-0.334265
-0.315279
-0.29355
-0.269016
-0.241963
-0.213268
-0.184605
-0.158397
-0.137345
-0.123516
-0.117414
-0.11783
-0.122654
-0.128386
-0.0820193
-0.0829039
-0.084525
-0.0872811
-0.0915425
-0.0975574
-0.105506
-0.115521
-0.127684
-0.142013
-0.158439
-0.176792
-0.196794
-0.218065
-0.240145
-0.262522
-0.284671
-0.30609
-0.326327
-0.345011
-0.361855
-0.376657
-0.389296
-0.399714
-0.407903
-0.413887
-0.417708
-0.419435
-0.419147
-0.416895
-0.412745
-0.406751
-0.398948
-0.38934
-0.37789
-0.364504
-0.349017
-0.331195
-0.310769
-0.287524
-0.261478
-0.233162
-0.203914
-0.176023
-0.152435
-0.135856
-0.127545
-0.126774
-0.131463
-0.137569
-0.0907448
-0.0913795
-0.0928206
-0.0955205
-0.0998094
-0.105917
-0.114009
-0.124205
-0.136573
-0.151119
-0.167762
-0.186319
-0.206502
-0.227922
-0.25011
-0.272552
-0.294722
-0.31612
-0.336305
-0.354911
-0.371661
-0.386362
-0.398899
-0.40922
-0.417319
-0.423224
-0.42698
-0.428652
-0.428333
-0.426073
-0.421953
-0.416042
-0.408399
-0.39906
-0.388023
-0.375234
-0.360566
-0.343808
-0.324672
-0.302848
-0.278154
-0.250788
-0.221696
-0.192875
-0.167309
-0.148213
-0.137634
-0.1355
-0.139923
-0.14635
-0.099018
-0.0993942
-0.100627
-0.10322
-0.107464
-0.113572
-0.121697
-0.131946
-0.144374
-0.158977
-0.175667
-0.194256
-0.214449
-0.235856
-0.258008
-0.280391
-0.302485
-0.323794
-0.343882
-0.362391
-0.379047
-0.393661
-0.406121
-0.416371
-0.424408
-0.430257
-0.433963
-0.435586
-0.435227
-0.432936
-0.428805
-0.422917
-0.415352
-0.406173
-0.395416
-0.38307
-0.369056
-0.353201
-0.335238
-0.314821
-0.291632
-0.2656
-0.237272
-0.208242
-0.181338
-0.160089
-0.147296
-0.143672
-0.147706
-0.154394
-0.106715
-0.106832
-0.107833
-0.110266
-0.114388
-0.120398
-0.128438
-0.138604
-0.150942
-0.165442
-0.182013
-0.200466
-0.220509
-0.241756
-0.263744
-0.285966
-0.307906
-0.329076
-0.349045
-0.367454
-0.384032
-0.398588
-0.411004
-0.421223
-0.429233
-0.435056
-0.438734
-0.44032
-0.439922
-0.437588
-0.433415
-0.427501
-0.419943
-0.410831
-0.400233
-0.388182
-0.374646
-0.359509
-0.342541
-0.323407
-0.30172
-0.277213
-0.25008
-0.221465
-0.193871
-0.17093
-0.15608
-0.150898
-0.15443
-0.161321
-0.113739
-0.113603
-0.114354
-0.116575
-0.120495
-0.126302
-0.134132
-0.144074
-0.156169
-0.170405
-0.186692
-0.204849
-0.224592
-0.245545
-0.267256
-0.289229
-0.310955
-0.331952
-0.35179
-0.37011
-0.386635
-0.401169
-0.413584
-0.423814
-0.431838
-0.437671
-0.441349
-0.44292
-0.442487
-0.440104
-0.43587
-0.429893
-0.422286
-0.41316
-0.402616
-0.390723
-0.3775
-0.362885
-0.346705
-0.32866
-0.308351
-0.285393
-0.259697
-0.231972
-0.204281
-0.18015
-0.163483
-0.156732
-0.159669
-0.166711
-0.120022
-0.119648
-0.120138
-0.122097
-0.125732
-0.131226
-0.138717
-0.148289
-0.159986
-0.173797
-0.189641
-0.207349
-0.226652
-0.24719
-0.268526
-0.290176
-0.311641
-0.332443
-0.35215
-0.3704
-0.386905
-0.401456
-0.413915
-0.424202
-0.432282
-0.438161
-0.441865
-0.443438
-0.442976
-0.440544
-0.436237
-0.430171
-0.422471
-0.413267
-0.402685
-0.390832
-0.37777
-0.363489
-0.347876
-0.330689
-0.311551
-0.290027
-0.265833
-0.239293
-0.211987
-0.187156
-0.168966
-0.160684
-0.162954
-0.170102
-0.125526
-0.124936
-0.12516
-0.126814
-0.130081
-0.135148
-0.142159
-0.151208
-0.162344
-0.175569
-0.190813
-0.207925
-0.226656
-0.246666
-0.267536
-0.288798
-0.309961
-0.330551
-0.350132
-0.368333
-0.384853
-0.399469
-0.412022
-0.422417
-0.430604
-0.436574
-0.440345
-0.441954
-0.441482
-0.439003
-0.434609
-0.428425
-0.420588
-0.411247
-0.400552
-0.388634
-0.375595
-0.361473
-0.346213
-0.329633
-0.311407
-0.291099
-0.268312
-0.24307
-0.21648
-0.191369
-0.171962
-0.162225
-0.163773
-0.170993
-0.130242
-0.129466
-0.129428
-0.130736
-0.133555
-0.138076
-0.144462
-0.152826
-0.163236
-0.175709
-0.190197
-0.206571
-0.224605
-0.243983
-0.264307
-0.285124
-0.305952
-0.326317
-0.34578
-0.363956
-0.380528
-0.395251
-0.407948
-0.418501
-0.426843
-0.432949
-0.436824
-0.438499
-0.43804
-0.435532
-0.431059
-0.424753
-0.416759
-0.407236
-0.396352
-0.384267
-0.371119
-0.356992
-0.341877
-0.32565
-0.308045
-0.288661
-0.267057
-0.243048
-0.217324
-0.192241
-0.17189
-0.160784
-0.161565
-0.168839
-0.134188
-0.133262
-0.132975
-0.133903
-0.136191
-0.140045
-0.145656
-0.153168
-0.162679
-0.174234
-0.187813
-0.203312
-0.220534
-0.239187
-0.258894
-0.279216
-0.299682
-0.319816
-0.339171
-0.357346
-0.374006
-0.388881
-0.40177
-0.412533
-0.42108
-0.427369
-0.431391
-0.433166
-0.432749
-0.430229
-0.425685
-0.419252
-0.411082
-0.401345
-0.390223
-0.377896
-0.364524
-0.350223
-0.335039
-0.318907
-0.301615
-0.28281
-0.262057
-0.239054
-0.21416
-0.189253
-0.168154
-0.155749
-0.155716
-0.163037
-0.137406
-0.136374
-0.135858
-0.136375
-0.138053
-0.141115
-0.145792
-0.152276
-0.160711
-0.171181
-0.1837
-0.198195
-0.214498
-0.232342
-0.251371
-0.27116
-0.291243
-0.311143
-0.330403
-0.348604
-0.365387
-0.380459
-0.393589
-0.404612
-0.413417
-0.419939
-0.424154
-0.426072
-0.425731
-0.423226
-0.418627
-0.412071
-0.403715
-0.393736
-0.382326
-0.369682
-0.355982
-0.341367
-0.325911
-0.309597
-0.292283
-0.273671
-0.253354
-0.230983
-0.206689
-0.18192
-0.160141
-0.146449
-0.145537
-0.152908
-0.139962
-0.138875
-0.138155
-0.138234
-0.139219
-0.141356
-0.144933
-0.150207
-0.157384
-0.166601
-0.177914
-0.191285
-0.206575
-0.223541
-0.241843
-0.26107
-0.28076
-0.30043
-0.31961
-0.337864
-0.354807
-0.370117
-0.383538
-0.394875
-0.403991
-0.410799
-0.415259
-0.417366
-0.417147
-0.414687
-0.410061
-0.403396
-0.394854
-0.384615
-0.372876
-0.359843
-0.345708
-0.33063
-0.314706
-0.297944
-0.280245
-0.261385
-0.241011
-0.218766
-0.19465
-0.169768
-0.147206
-0.132138
-0.130235
-0.137658
-0.141938
-0.140853
-0.13996
-0.139573
-0.139775
-0.140848
-0.143149
-0.147024
-0.152759
-0.160559
-0.170529
-0.18267
-0.196869
-0.212902
-0.230448
-0.249099
-0.268394
-0.287846
-0.306968
-0.325304
-0.342445
-0.358039
-0.371798
-0.383501
-0.392983
-0.400136
-0.404896
-0.407245
-0.407199
-0.404825
-0.400208
-0.39346
-0.384741
-0.374232
-0.362132
-0.348644
-0.333968
-0.318269
-0.30166
-0.284167
-0.265714
-0.246117
-0.225101
-0.202349
-0.177798
-0.152318
-0.128646
-0.111958
-0.108875
-0.116329
-0.143434
-0.142419
-0.141385
-0.140493
-0.13981
-0.139664
-0.140505
-0.142788
-0.1469
-0.153128
-0.161634
-0.172456
-0.185507
-0.200579
-0.217357
-0.235436
-0.254353
-0.273609
-0.292703
-0.311156
-0.328533
-0.344454
-0.358602
-0.370724
-0.380629
-0.388183
-0.393304
-0.395954
-0.396139
-0.393904
-0.38934
-0.382543
-0.373668
-0.362889
-0.350398
-0.336394
-0.321069
-0.304586
-0.287055
-0.268511
-0.248892
-0.228029
-0.205692
-0.181654
-0.15586
-0.129045
-0.10367
-0.0848932
-0.0803131
-0.08772
-0.144572
-0.143701
-0.142556
-0.141102
-0.139407
-0.137867
-0.137053
-0.13755
-0.139869
-0.144387
-0.151331
-0.160774
-0.17265
-0.186758
-0.202783
-0.220318
-0.238889
-0.257986
-0.27709
-0.295701
-0.313357
-0.329651
-0.344235
-0.356829
-0.367213
-0.375229
-0.380773
-0.383788
-0.384265
-0.382233
-0.377772
-0.370972
-0.361968
-0.350926
-0.338023
-0.323441
-0.307354
-0.289909
-0.2712
-0.251249
-0.229989
-0.207257
-0.182835
-0.156564
-0.128497
-0.0993277
-0.0713369
-0.0496929
-0.0431017
-0.0502612
-0.145502
-0.14486
-0.143618
-0.141509
-0.138634
-0.135499
-0.132821
-0.131347
-0.131722
-0.134424
-0.139741
-0.147783
-0.158491
-0.171665
-0.186983
-0.204025
-0.222305
-0.241296
-0.26046
-0.279276
-0.297258
-0.31397
-0.329039
-0.342155
-0.353074
-0.361611
-0.367641
-0.371087
-0.371923
-0.37016
-0.36586
-0.359106
-0.350009
-0.338716
-0.325379
-0.310155
-0.293188
-0.274588
-0.254416
-0.232659
-0.209219
-0.183914
-0.156524
-0.126904
-0.0952622
-0.0624101
-0.0305073
-0.00478755
0.0046569
-0.00181945
-0.146432
-0.146105
-0.144748
-0.141825
-0.137543
-0.132573
-0.127817
-0.124201
-0.122515
-0.123336
-0.127012
-0.133674
-0.143267
-0.155577
-0.170265
-0.186894
-0.204958
-0.223912
-0.243197
-0.262272
-0.280628
-0.297806
-0.313405
-0.327092
-0.338595
-0.347709
-0.354283
-0.358224
-0.359483
-0.358056
-0.353977
-0.347319
-0.338164
-0.32663
-0.312839
-0.296906
-0.278927
-0.258963
-0.237015
-0.213007
-0.186778
-0.158092
-0.126692
-0.0924422
-0.0556248
-0.0173524
0.0201738
0.0517132
0.0653905
0.0605006
-0.14768
-0.147734
-0.146174
-0.142175
-0.136173
-0.129082
-0.122028
-0.116127
-0.112312
-0.111249
-0.113329
-0.118691
-0.127267
-0.138824
-0.152994
-0.169316
-0.187259
-0.206258
-0.225734
-0.245127
-0.263906
-0.281592
-0.297763
-0.31206
-0.324191
-0.333926
-0.341095
-0.345583
-0.347321
-0.346285
-0.342484
-0.335962
-0.326779
-0.315009
-0.300734
-0.284017
-0.264889
-0.243335
-0.219272
-0.192526
-0.162831
-0.129846
-0.0932338
-0.0528221
-0.008938
0.0370181
0.0823639
0.121976
0.142002
0.140395
-0.149803
-0.150224
-0.148226
-0.14272
-0.134564
-0.125011
-0.115443
-0.107159
-0.101212
-0.0983341
-0.0989321
-0.103135
-0.110849
-0.121802
-0.135597
-0.151737
-0.169669
-0.188803
-0.208544
-0.228312
-0.247559
-0.265789
-0.282559
-0.297493
-0.310277
-0.320662
-0.328457
-0.333525
-0.335778
-0.335168
-0.33168
-0.325323
-0.316124
-0.304111
-0.289314
-0.271728
-0.251304
-0.227928
-0.201396
-0.171397
-0.137507
-0.0992204
-0.0560391
-0.0076849
0.0455229
0.102055
0.158268
0.208767
0.238289
0.242737
-0.153861
-0.154396
-0.151426
-0.143712
-0.132807
-0.120386
-0.108096
-0.0973906
-0.0893871
-0.0848418
-0.0841467
-0.0873931
-0.0944405
-0.104975
-0.118555
-0.134653
-0.152687
-0.172046
-0.192118
-0.212307
-0.232052
-0.250842
-0.268221
-0.283794
-0.297231
-0.308265
-0.316687
-0.322338
-0.32511
-0.324931
-0.321758
-0.31557
-0.306347
-0.294069
-0.278699
-0.260156
-0.238292
-0.212866
-0.183522
-0.149763
-0.110944
-0.0663121
-0.0151134
0.0431562
0.108312
0.178781
0.250361
0.316037
0.360517
0.37595
-0.161983
-0.161755
-0.156658
-0.145604
-0.131132
-0.115361
-0.100151
-0.0870408
-0.0771354
-0.071142
-0.069403
-0.0719394
-0.0785476
-0.0888596
-0.102391
-0.118579
-0.136816
-0.156471
-0.176919
-0.197551
-0.217798
-0.237135
-0.255097
-0.271276
-0.28533
-0.296974
-0.305982
-0.312181
-0.315438
-0.315658
-0.31277
-0.306718
-0.297442
-0.284865
-0.26887
-0.24929
-0.225861
-0.198196
-0.165749
-0.127787
-0.0833804
-0.0314307
0.0291985
0.0994017
0.17932
0.267557
0.359873
0.447922
0.51661
0.553454
-0.178424
-0.175105
-0.165474
-0.14924
-0.13007
-0.110353
-0.0920094
-0.076542
-0.0649327
-0.0577533
-0.0552456
-0.0573285
-0.0637192
-0.0739904
-0.0876128
-0.103992
-0.122496
-0.14248
-0.163308
-0.184365
-0.205073
-0.224904
-0.243382
-0.260093
-0.274683
-0.286857
-0.296375
-0.303045
-0.306719
-0.307276
-0.30462
-0.298657
-0.289285
-0.276369
-0.259714
-0.23905
-0.213989
-0.183977
-0.148256
-0.105817
-0.0553747
0.00461389
0.0758345
0.159819
0.257358
0.367552
0.486388
0.605996
0.707804
0.779824
-0.211342
-0.199537
-0.180373
-0.155862
-0.13039
-0.105982
-0.0842539
-0.0664631
-0.0533465
-0.0452554
-0.0422403
-0.0440941
-0.0504458
-0.0608058
-0.0746031
-0.0912155
-0.109995
-0.130287
-0.151447
-0.17286
-0.193946
-0.214173
-0.233064
-0.250199
-0.265217
-0.277815
-0.287742
-0.294794
-0.298803
-0.29963
-0.29715
-0.291235
-0.281741
-0.268476
-0.251169
-0.229446
-0.20279
-0.170482
-0.131541
-0.0846617
-0.0281645
0.0400321
0.122353
0.221339
0.339096
0.4762
0.629777
0.791365
0.930624
1.03507
-0.280264
-0.24342
-0.202839
-0.164843
-0.131103
-0.101383
-0.0763116
-0.0565456
-0.0423543
-0.0337356
-0.0305193
-0.032374
-0.0388439
-0.0493862
-0.0633992
-0.0802441
-0.0992645
-0.119803
-0.141219
-0.162896
-0.184258
-0.204776
-0.223972
-0.241425
-0.256771
-0.2697
-0.279954
-0.287316
-0.291604
-0.292662
-0.290339
-0.284478
-0.274892
-0.261338
-0.243478
-0.220851
-0.192828
-0.158539
-0.116805
-0.0660549
-0.0042301
0.0713026
0.16382
0.27724
0.415931
0.584124
0.784037
1.00989
1.21713
1.36925
-0.458001
-0.313109
-0.21854
-0.164608
-0.124201
-0.0903208
-0.0635323
-0.0434974
-0.0295032
-0.0212317
-0.0184445
-0.0207497
-0.0276433
-0.0385664
-0.0529198
-0.0700716
-0.0893744
-0.110181
-0.131859
-0.153801
-0.175439
-0.196246
-0.215748
-0.233525
-0.249209
-0.262485
-0.273089
-0.280795
-0.285409
-0.286758
-0.284675
-0.278978
-0.269449
-0.255807
-0.237673
-0.214532
-0.185673
-0.150132
-0.106601
-0.0533291
0.0119975
0.0924222
0.191932
0.315781
0.470998
0.667288
0.91807
1.23958
1.62916
2.07737
-0.913073
-0.40033
-0.194414
-0.145758
-0.108158
-0.071317
-0.0445484
-0.0263712
-0.0140625
-0.0070466
-0.00527803
-0.00842776
-0.0160039
-0.0274806
-0.0422977
-0.0598547
-0.0795274
-0.100687
-0.122716
-0.145017
-0.167029
-0.188229
-0.208144
-0.226352
-0.242483
-0.256218
-0.267285
-0.275452
-0.280515
-0.282293
-0.280607
-0.275262
-0.266031
-0.252616
-0.234623
-0.211511
-0.182545
-0.14673
-0.10272
-0.0487122
0.0176901
0.0996823
0.201567
0.329303
0.4916
0.702379
0.986695
1.39867
2.06763
3.21981
)
;

boundaryField
{
    movingWall
    {
        type            zeroGradient;
    }
    fixedWalls
    {
        type            zeroGradient;
    }
    frontAndBack
    {
        type            empty;
    }
}


// ************************************************************************* //
