/*--------------------------------*- C++ -*----------------------------------*\
  =========                 |
  \\      /  F ield         | OpenFOAM: The Open Source CFD Toolbox
   \\    /   O peration     | Website:  https://openfoam.org
    \\  /    A nd           | Version:  7
     \\/     M anipulation  |
\*---------------------------------------------------------------------------*/
FoamFile
{
    version     2.0;
    format      ascii;
    class       surfaceScalarField;
    location    "350";
    object      phi;
}
// * * * * * * * * * * * * * * * * * * * * * * * * * * * * * * * * * * * * * //

dimensions      [0 3 -1 0 0 0 0];

internalField   nonuniform List<scalar> 
4900
(
5.4131e-07
-5.45004e-07
1.32256e-06
-7.81265e-07
1.85445e-06
-5.31901e-07
1.92359e-06
-6.91594e-08
1.47634e-06
4.47236e-07
5.28044e-07
9.48281e-07
-8.84479e-07
1.4125e-06
-2.72634e-06
1.84184e-06
-4.97307e-06
2.24671e-06
-7.61043e-06
2.63734e-06
-1.06298e-05
3.01935e-06
-1.4022e-05
3.39215e-06
-1.77708e-05
3.74882e-06
-2.18477e-05
4.07683e-06
-2.62068e-05
4.35917e-06
-3.07823e-05
4.5755e-06
-3.54859e-05
4.70351e-06
-4.02062e-05
4.72035e-06
-4.48105e-05
4.60422e-06
-4.91467e-05
4.33619e-06
-5.30488e-05
3.90213e-06
-5.63435e-05
3.29465e-06
-5.88585e-05
2.51505e-06
-6.04334e-05
1.5748e-06
-6.09302e-05
4.9679e-07
-6.02457e-05
-6.845e-07
-5.83213e-05
-1.92437e-06
-5.51527e-05
-3.16868e-06
-5.07956e-05
-4.35711e-06
-4.53687e-05
-5.42692e-06
-3.90512e-05
-6.31749e-06
-3.2076e-05
-6.97526e-06
-2.47173e-05
-7.35867e-06
-1.7275e-05
-7.44233e-06
-1.0055e-05
-7.22005e-06
-3.34905e-06
-6.70594e-06
2.58469e-06
-5.93376e-06
7.5387e-06
-4.95403e-06
1.13674e-05
-3.82871e-06
1.39929e-05
-2.62554e-06
1.54055e-05
-1.41259e-06
1.56584e-05
-2.52935e-07
1.48601e-05
7.98345e-07
1.31659e-05
1.69413e-06
1.07765e-05
2.38942e-06
7.94353e-06
2.83298e-06
4.9882e-06
2.95533e-06
2.33136e-06
2.65683e-06
5.14783e-07
1.81658e-06
5.14782e-07
7.89503e-07
-1.33453e-06
1.6704e-06
-1.6622e-06
1.7852e-06
-6.46732e-07
7.49683e-07
9.66316e-07
-1.56354e-06
2.76042e-06
-5.15062e-06
4.53531e-06
-9.95634e-06
6.21818e-06
-1.59177e-05
7.80314e-06
-2.29809e-05
9.30989e-06
-3.11018e-05
1.07581e-05
-4.02364e-05
1.2154e-05
-5.03288e-05
1.34844e-05
-6.1297e-05
1.4717e-05
-7.30223e-05
1.58021e-05
-8.53401e-05
1.66769e-05
-9.80346e-05
1.72699e-05
-0.000110837
1.75062e-05
-0.00012343
1.73127e-05
-0.00013545
1.66242e-05
-0.000146503
1.53894e-05
-0.000156178
1.35767e-05
-0.000164063
1.11798e-05
-0.00016977
8.22235e-06
-0.000172957
4.76109e-06
-0.000173347
8.87397e-07
-0.000170759
-3.27324e-06
-0.000165116
-7.56749e-06
-0.000156466
-1.18185e-05
-0.000144987
-1.58358e-05
-0.000130988
-1.9426e-05
-0.0001149
-2.24056e-05
-9.72611e-05
-2.46143e-05
-7.86921e-05
-2.59277e-05
-5.98654e-05
-2.62691e-05
-4.14684e-05
-2.5617e-05
-2.41647e-05
-2.40098e-05
-8.55493e-06
-2.15435e-05
4.85681e-06
-1.83658e-05
1.56922e-05
-1.46641e-05
2.37172e-05
-1.06506e-05
2.88488e-05
-6.54421e-06
3.11531e-05
-2.55721e-06
3.08368e-05
1.11458e-06
2.82362e-05
4.2948e-06
2.38104e-05
6.81512e-06
1.81462e-05
8.49725e-06
1.19732e-05
9.12827e-06
6.186e-06
8.44403e-06
1.82983e-06
6.17273e-06
2.34461e-06
4.8763e-07
-1.82218e-06
4.49306e-07
-1.62393e-06
-9.67179e-07
7.69709e-07
-4.14541e-06
4.14451e-06
-9.21347e-06
7.82843e-06
-1.61671e-05
1.14889e-05
-2.49468e-05
1.49979e-05
-3.54796e-05
1.83358e-05
-4.76931e-05
2.15234e-05
-6.15133e-05
2.45782e-05
-7.68506e-05
2.74912e-05
-9.35836e-05
3.02174e-05
-0.000111543
3.26764e-05
-0.000130498
3.47572e-05
-0.000150149
3.63274e-05
-0.000170121
3.72425e-05
-0.000189973
3.73578e-05
-0.000209199
3.65391e-05
-0.00022725
3.46747e-05
-0.000243547
3.16866e-05
-0.000257511
2.75406e-05
-0.000268586
2.22543e-05
-0.000276267
1.59035e-05
-0.000280131
8.62508e-06
-0.00027986
6.16785e-07
-0.000275268
-7.86555e-06
-0.000266314
-1.6522e-05
-0.000253114
-2.50177e-05
-0.000235951
-3.29991e-05
-0.000215264
-4.01128e-05
-0.000191644
-4.60258e-05
-0.000165811
-5.04475e-05
-0.000138588
-5.31509e-05
-0.000110866
-5.39913e-05
-8.3562e-05
-5.29208e-05
-5.75751e-05
-4.99967e-05
-3.37379e-05
-4.53809e-05
-1.27723e-05
-3.93314e-05
4.74844e-06
-3.21849e-05
1.84312e-05
-2.43334e-05
2.80823e-05
-1.61954e-05
3.37143e-05
-8.18921e-06
3.5543e-05
-7.1417e-07
3.39804e-05
5.8574e-06
2.96238e-05
1.11718e-05
2.32532e-05
1.48678e-05
1.58347e-05
1.65467e-05
8.52749e-06
1.57513e-05
2.69315e-06
1.20071e-05
5.03776e-06
-1.62295e-07
-1.6599e-06
-1.81139e-06
2.51169e-08
-5.58296e-06
4.54123e-06
-1.17296e-05
1.02911e-05
-2.03058e-05
1.64045e-05
-3.12725e-05
2.24555e-05
-4.4556e-05
2.82813e-05
-6.00737e-05
3.38535e-05
-7.77369e-05
3.91866e-05
-9.74394e-05
4.42806e-05
-0.000119039
4.90903e-05
-0.000142337
5.35156e-05
-0.000167065
5.74042e-05
-0.00019287
6.05623e-05
-0.000219312
6.27698e-05
-0.000245868
6.37978e-05
-0.000271937
6.34267e-05
-0.000296862
6.14648e-05
-0.000319953
5.77651e-05
-0.000340508
5.22413e-05
-0.000357847
4.488e-05
-0.000371342
3.57496e-05
-0.000380444
2.50056e-05
-0.00038471
1.28905e-05
-0.000383825
-2.68674e-07
-0.000377623
-1.40669e-05
-0.000366102
-2.80436e-05
-0.000349425
-4.16943e-05
-0.000327931
-5.44931e-05
-0.000302128
-6.59164e-05
-0.000272683
-7.54704e-05
-0.00024041
-8.27202e-05
-0.000206242
-8.73192e-05
-0.000171197
-8.90363e-05
-0.00013634
-8.7778e-05
-0.000102734
-8.36027e-05
-7.139e-05
-7.67251e-05
-4.32137e-05
-6.75077e-05
-1.89582e-05
-5.64404e-05
8.17536e-07
-4.41092e-05
1.57808e-05
-3.11587e-05
2.58445e-05
-1.82529e-05
3.11717e-05
-6.04138e-06
3.21741e-05
4.85496e-06
2.95003e-05
1.38456e-05
2.40275e-05
2.03405e-05
1.68569e-05
2.37173e-05
9.31944e-06
2.32887e-05
3.01705e-06
1.83094e-05
8.05481e-06
-1.03605e-06
-6.23873e-07
-4.79196e-06
3.78097e-06
-1.1538e-05
1.12872e-05
-2.12936e-05
2.00467e-05
-3.39766e-05
2.90875e-05
-4.94783e-05
3.79572e-05
-6.76941e-05
4.6497e-05
-8.8525e-05
5.46843e-05
-0.000111862
6.25233e-05
-0.000137561
6.99801e-05
-0.000165422
7.69513e-05
-0.000195164
8.32576e-05
-0.000226414
8.86536e-05
-0.000258698
9.2846e-05
-0.000291446
9.55178e-05
-0.000324002
9.63542e-05
-0.000355643
9.50679e-05
-0.000385602
9.14237e-05
-0.000413097
8.52598e-05
-0.00043736
7.65045e-05
-0.000457669
6.51889e-05
-0.000473373
5.14535e-05
-0.000483917
3.55496e-05
-0.000488863
1.78363e-05
-0.000487906
-1.22581e-06
-0.00048089
-2.10833e-05
-0.000467814
-4.1119e-05
-0.000448845
-6.06632e-05
-0.00042432
-7.90188e-05
-0.000394747
-9.5489e-05
-0.000360808
-0.00010941
-0.000323342
-0.000120186
-0.000283332
-0.000127329
-0.000241876
-0.000130493
-0.000200146
-0.000129508
-0.000159344
-0.000124404
-0.000120645
-0.000115425
-8.51345e-05
-0.000103018
-5.37551e-05
-8.78198e-05
-2.72484e-05
-7.06159e-05
-6.11301e-06
-5.2294e-05
9.42643e-06
-3.37923e-05
1.94377e-05
-1.60526e-05
2.42795e-05
1.31053e-08
2.45969e-05
1.35282e-05
2.13045e-05
2.36329e-05
1.55803e-05
2.94415e-05
8.8699e-06
2.99991e-05
2.9333e-06
2.4246e-05
1.09881e-05
-2.0676e-06
1.44371e-06
-8.2884e-06
1.00017e-05
-1.84623e-05
2.1461e-05
-3.22981e-05
3.38824e-05
-4.95269e-05
4.63162e-05
-6.99412e-05
5.83714e-05
-9.33893e-05
6.99451e-05
-0.000119747
8.10416e-05
-0.000148877
9.16538e-05
-0.000180596
0.000101699
-0.000214638
0.000110993
-0.000250639
0.000119259
-0.000288125
0.00012614
-0.000326515
0.000131235
-0.000365129
0.000134132
-0.000403211
0.000134437
-0.000439954
0.000131811
-0.000474527
0.000125997
-0.000506107
0.000116839
-0.000533905
0.000104303
-0.000557196
8.84794e-05
-0.000575333
6.95903e-05
-0.000587768
4.79849e-05
-0.000594065
2.41333e-05
-0.000593908
-1.38312e-06
-0.000587114
-2.78771e-05
-0.000573643
-5.45906e-05
-0.000553606
-8.07002e-05
-0.000527281
-0.000105343
-0.000495122
-0.000127648
-0.000457764
-0.000146768
-0.000416025
-0.000161925
-0.000370899
-0.000172456
-0.000323529
-0.000177862
-0.000275181
-0.000177856
-0.000227189
-0.000172396
-0.000180899
-0.000161715
-0.000137597
-0.00014632
-9.8439e-05
-0.000126977
-6.43825e-05
-0.000104672
-3.61256e-05
-8.05509e-05
-1.40648e-05
-5.58531e-05
1.73182e-06
-3.18493e-05
1.15352e-05
-9.7903e-06
1.59493e-05
9.11404e-06
1.589e-05
2.36922e-05
1.25749e-05
3.27566e-05
7.52077e-06
3.50533e-05
2.57263e-06
2.91942e-05
1.35607e-05
-3.21388e-06
4.65756e-06
-1.21511e-05
1.89389e-05
-2.60633e-05
3.53732e-05
-4.42919e-05
5.2111e-05
-6.6346e-05
6.83702e-05
-9.18979e-05
8.39232e-05
-0.000120736
9.87837e-05
-0.000152703
0.000113008
-0.000187628
0.000126579
-0.000225279
0.00013935
-0.000265329
0.000151043
-0.000307332
0.000161262
-0.000350727
0.000169535
-0.000394843
0.000175352
-0.000438924
0.000178213
-0.00048215
0.000177662
-0.000523671
0.000173331
-0.000562635
0.000164961
-0.000598218
0.000152422
-0.000629642
0.000135727
-0.000656197
0.000115034
-0.000677248
9.0642e-05
-0.00069225
6.29869e-05
-0.000700749
3.26316e-05
-0.000702388
2.56739e-07
-0.000696924
-3.3342e-05
-0.00068423
-6.72845e-05
-0.00066432
-0.00010061
-0.000637365
-0.000132299
-0.000603711
-0.000161302
-0.000563902
-0.000186577
-0.000518688
-0.000207139
-0.000469032
-0.000222112
-0.000416098
-0.000230797
-0.000361223
-0.000232731
-0.000305874
-0.000227745
-0.000251581
-0.000216008
-0.000199858
-0.000198044
-0.000152113
-0.000174723
-0.000109563
-0.000147222
-7.31557e-05
-0.000116958
-4.35044e-05
-8.55045e-05
-2.08507e-05
-5.4503e-05
-5.04845e-06
-2.55926e-05
4.43164e-06
-3.66067e-07
8.48636e-06
1.96375e-05
8.34777e-06
3.28951e-05
5.57263e-06
3.78284e-05
2.04341e-06
3.27234e-05
1.56041e-05
-4.43898e-06
9.09652e-06
-1.6251e-05
3.07508e-05
-3.40808e-05
5.3203e-05
-5.68648e-05
7.4895e-05
-8.38676e-05
9.5373e-05
-0.000114629
0.000114685
-0.00014887
0.000133024
-0.00018639
0.000150529
-0.000226983
0.000167171
-0.000270366
0.000182733
-0.00031615
0.000196827
-0.000363821
0.000208933
-0.000412747
0.00021846
-0.000462196
0.000224801
-0.000511364
0.000227381
-0.000559406
0.000225704
-0.000605466
0.000219392
-0.000648705
0.0002082
-0.000688321
0.000192037
-0.000723562
0.000170969
-0.00075374
0.000145212
-0.00077823
0.000115132
-0.000796474
8.12311e-05
-0.000807985
4.41424e-05
-0.000812349
4.62062e-06
-0.000809233
-3.64585e-05
-0.000798404
-7.81126e-05
-0.000779749
-0.000119265
-0.000753295
-0.000158753
-0.000719243
-0.000195354
-0.000677996
-0.000227824
-0.000630188
-0.000254947
-0.000576699
-0.0002756
-0.000518668
-0.000288829
-0.00045747
-0.000293929
-0.000394685
-0.00029053
-0.00033203
-0.000278663
-0.00027127
-0.000258804
-0.000214109
-0.000231883
-0.000162085
-0.000199247
-0.000116454
-0.000162589
-7.81128e-05
-0.000123846
-4.75316e-05
-8.50842e-05
-2.47324e-05
-4.83918e-05
-9.29064e-06
-1.58078e-05
-3.57317e-07
1.07042e-05
3.29973e-06
2.92381e-05
3.26127e-06
3.78668e-05
1.42815e-06
3.45565e-05
1.70323e-05
-5.70668e-06
1.48032e-05
-2.04609e-05
4.5505e-05
-4.22619e-05
7.50038e-05
-6.96198e-05
0.000102253
-0.000101545
0.000127298
-0.000137438
0.000150578
-0.000176948
0.000172534
-0.00021983
0.00019341
-0.000265834
0.000213174
-0.00031463
0.00023153
-0.000365774
0.000247971
-0.000418696
0.000261854
-0.000472714
0.000272478
-0.000527062
0.000279149
-0.000580919
0.000281238
-0.000633444
0.000278229
-0.0006838
0.000269747
-0.000731178
0.000255578
-0.000774812
0.000235671
-0.000813981
0.000210138
-0.000848016
0.000179247
-0.000876298
0.000143414
-0.000898255
0.000103188
-0.000913363
5.92508e-05
-0.000921151
1.24082e-05
-0.0009212
-3.64098e-05
-0.000913169
-8.61435e-05
-0.000896806
-0.000135628
-0.000871979
-0.00018358
-0.000838712
-0.000228622
-0.00079722
-0.000269316
-0.000747959
-0.000304208
-0.000691661
-0.000331899
-0.000629363
-0.000351127
-0.000562414
-0.000360877
-0.000492459
-0.000360485
-0.000421375
-0.000349747
-0.000351183
-0.000328996
-0.000283925
-0.000299142
-0.000221516
-0.000261655
-0.000165609
-0.000218495
-0.000117466
-0.000171989
-7.7868e-05
-0.000124683
-4.70699e-05
-7.91899e-05
-2.47978e-05
-3.80799e-05
-1.02802e-05
-3.81349e-06
-2.29822e-06
2.12561e-05
7.46746e-07
3.48219e-05
7.82037e-07
3.45212e-05
1.78143e-05
-6.97717e-06
2.17803e-05
-2.46482e-05
6.31759e-05
-5.03498e-05
0.000100705
-8.21615e-05
0.000134064
-0.000118838
0.000163975
-0.000159644
0.000191383
-0.000204151
0.000217042
-0.000252068
0.000241327
-0.000303101
0.000264207
-0.000356875
0.000285305
-0.0004129
0.000303995
-0.000470564
0.000319518
-0.000529155
0.00033107
-0.000587896
0.000337889
-0.000645971
0.000339313
-0.000702558
0.000334817
-0.000756856
0.000324045
-0.000808091
0.000306814
-0.000855534
0.000283113
-0.000898495
0.000253098
-0.000936326
0.000217079
-0.000968421
0.000175508
-0.000994205
0.000128972
-0.00101314
7.81857e-05
-0.00102472
2.39872e-05
-0.00102847
-3.26629e-05
-0.00102395
-9.06563e-05
-0.0010108
-0.000148776
-0.000988727
-0.000205657
-0.000957544
-0.000259805
-0.000917244
-0.000309616
-0.000868037
-0.000353414
-0.00081042
-0.000389516
-0.00074523
-0.000416317
-0.000673687
-0.00043242
-0.000597405
-0.000436768
-0.000518354
-0.000428797
-0.000438784
-0.000408566
-0.000361082
-0.000376844
-0.000287604
-0.000335133
-0.000220486
-0.000285613
-0.000161468
-0.000231008
-0.000111751
-0.000174399
-7.19222e-05
-0.000119019
-4.19297e-05
-6.80724e-05
-2.11225e-05
-2.46207e-05
-8.31711e-06
8.45069e-06
-1.89075e-06
2.83955e-05
1.33117e-07
3.24973e-05
1.79474e-05
-8.20658e-06
2.99869e-05
-2.86729e-05
8.36421e-05
-5.80827e-05
0.000130115
-9.40958e-05
0.000170077
-0.00013522
0.000205099
-0.000180584
0.000236747
-0.000229686
0.000266144
-0.000282184
0.000293825
-0.000337743
0.000319766
-0.000395946
0.000343507
-0.000456264
0.000364313
-0.000518056
0.00038131
-0.000580599
0.000393613
-0.000643116
0.000400406
-0.000704807
0.000401004
-0.000764879
0.000394889
-0.000822562
0.000381728
-0.00087712
0.000361371
-0.000927857
0.00033385
-0.000974118
0.000299359
-0.00101529
0.00025825
-0.00105079
0.000211012
-0.00108009
0.000158267
-0.00110266
0.000100756
-0.00111801
3.93362e-05
-0.00112565
-2.50212e-05
-0.00112511
-9.11958e-05
-0.00111592
-0.000157962
-0.00109765
-0.000223926
-0.00106992
-0.000287536
-0.00103246
-0.000347079
-0.000985172
-0.000400703
-0.000928226
-0.000446461
-0.000862142
-0.000482401
-0.000787872
-0.000506689
-0.000706862
-0.000517778
-0.000621053
-0.000514606
-0.000532832
-0.000496787
-0.000444901
-0.000464774
-0.000360085
-0.000419949
-0.000281089
-0.000364609
-0.000210255
-0.000301842
-0.000149351
-0.000235303
-9.94294e-05
-0.00016894
-6.07726e-05
-0.000106729
-3.29209e-05
-5.24725e-05
-1.47621e-05
-9.70808e-06
-4.64677e-06
1.82802e-05
-5.15901e-07
2.83664e-05
1.74315e-05
-9.34808e-06
3.93349e-05
-3.23914e-05
0.000106685
-6.5199e-05
0.000162923
-0.000105037
0.000209915
-0.00015018
0.000250243
-0.000199627
0.000286193
-0.000252802
0.000319319
-0.000309312
0.000350335
-0.000368779
0.000379233
-0.000430749
0.000405477
-0.000494661
0.000428225
-0.000559858
0.000446507
-0.000625608
0.000459363
-0.000691141
0.000465939
-0.000755675
0.000465538
-0.000818442
0.000457655
-0.000878698
0.000441984
-0.000935739
0.000418413
-0.000988906
0.000387017
-0.00103759
0.000348042
-0.00108123
0.000301889
-0.00111931
0.000249096
-0.00115137
0.000190326
-0.00117696
0.000126349
-0.00119566
5.80347e-05
-0.00120703
-1.36552e-05
-0.00121059
-8.7628e-05
-0.00120586
-0.000162695
-0.00119229
-0.000237501
-0.00116931
-0.000310513
-0.0011364
-0.000379991
-0.00109311
-0.000443986
-0.00103922
-0.000500352
-0.000974806
-0.000546817
-0.000900397
-0.000581098
-0.000817089
-0.000601086
-0.000726615
-0.00060508
-0.000631345
-0.000592058
-0.00053419
-0.000561929
-0.000438411
-0.000515729
-0.000347333
-0.000455686
-0.000264027
-0.000385148
-0.000190993
-0.000308337
-0.000129929
-0.000230004
-8.16089e-05
-0.00015505
-4.58775e-05
-8.82038e-05
-2.17545e-05
-3.38312e-05
-7.58118e-06
4.10689e-06
-1.18307e-06
2.19683e-05
1.62485e-05
-1.03541e-05
4.9689e-05
-3.56618e-05
0.000131993
-7.14454e-05
0.000198706
-0.000114617
0.000253087
-0.00016324
0.000298865
-0.000216186
0.000339139
-0.000272805
0.000375938
-0.000332652
0.000410182
-0.000395307
0.000441887
-0.000460278
0.000470449
-0.000526981
0.000494928
-0.00059474
0.000514266
-0.00066282
0.000527444
-0.000730456
0.000533574
-0.000796876
0.000531958
-0.000861326
0.000522106
-0.000923086
0.000503744
-0.000981482
0.000476809
-0.0010359
0.000441434
-0.00108579
0.000397933
-0.00113068
0.000346778
-0.00117016
0.000288577
-0.00120388
0.000224047
-0.00123153
0.000153996
-0.0012528
7.93007e-05
-0.00126735
9.03054e-07
-0.0012748
-8.01793e-05
-0.00127467
-0.00016283
-0.00126636
-0.000245809
-0.00124919
-0.000327685
-0.00122238
-0.000406794
-0.00118517
-0.000481196
-0.00113687
-0.000548652
-0.00107704
-0.000606651
-0.00100564
-0.000652501
-0.000923219
-0.000683505
-0.000831078
-0.000697221
-0.000731339
-0.000691798
-0.000626929
-0.000666338
-0.000521428
-0.00062123
-0.000418762
-0.000558352
-0.000322812
-0.000481098
-0.000236982
-0.000394166
-0.000163831
-0.000303155
-0.00010483
-0.00021405
-6.03015e-05
-0.000132733
-2.94995e-05
-6.46332e-05
-1.08e-05
-1.45926e-05
-1.90148e-06
1.30698e-05
1.4347e-05
-1.11789e-05
6.08678e-05
-3.83502e-05
0.000159164
-7.65872e-05
0.000236943
-0.000122502
0.000299002
-0.000173967
0.000350329
-0.000229735
0.000394907
-0.00028908
0.000435283
-0.0003515
0.000472603
-0.000416531
0.000506918
-0.000483649
0.000537566
-0.00055224
0.000563519
-0.000621615
0.00058364
-0.000691029
0.000596857
-0.000759712
0.000602258
-0.000826898
0.000599143
-0.000891839
0.000587047
-0.000953836
0.000565741
-0.00101225
0.000535223
-0.00106653
0.00049571
-0.0011162
0.000447609
-0.00116091
0.000391492
-0.0012004
0.00032806
-0.00123446
0.000258107
-0.00126295
0.000182487
-0.00128573
0.000102085
-0.00130264
1.78072e-05
-0.00131339
-6.94263e-05
-0.0013176
-0.000158617
-0.00131471
-0.0002487
-0.00130396
-0.000338432
-0.00128443
-0.000426329
-0.00125504
-0.000510586
-0.00121468
-0.000589007
-0.00116236
-0.000658977
-0.00109735
-0.000717503
-0.00101951
-0.000761348
-0.000929444
-0.000787288
-0.000828747
-0.000792495
-0.000720086
-0.000774999
-0.000607127
-0.00073419
-0.00049427
-0.000671209
-0.000386212
-0.000589156
-0.000287393
-0.000492985
-0.000201454
-0.000389094
-0.000130826
-0.000284678
-7.65359e-05
-0.000187023
-3.82402e-05
-0.000102929
-1.44336e-05
-3.83993e-05
-2.71308e-06
1.34928e-06
1.16339e-05
-1.17813e-05
7.26491e-05
-4.03381e-05
0.000187721
-8.04187e-05
0.000277024
-0.000128401
0.000346985
-0.000181991
0.000403918
-0.000239828
0.000452745
-0.000301107
0.000496562
-0.000365266
0.000536762
-0.000431794
0.000573446
-0.00050013
0.000605902
-0.000569635
0.000633024
-0.000639597
0.000653602
-0.000709258
0.000666518
-0.000777839
0.000670839
-0.000844567
0.000665872
-0.000908706
0.000651186
-0.000969577
0.000626612
-0.00102659
0.000592237
-0.00107927
0.000548387
-0.00112726
0.000495597
-0.00117033
0.000434566
-0.00120839
0.000366116
-0.00124142
0.000291136
-0.00126946
0.000210536
-0.00129259
0.000125208
-0.00131079
3.60146e-05
-0.00132399
-5.62279e-05
-0.00133193
-0.000150684
-0.00133413
-0.0002465
-0.00132987
-0.000342688
-0.00131816
-0.000438041
-0.00129773
-0.000531014
-0.00126713
-0.000619608
-0.00122483
-0.00070128
-0.00116942
-0.000772905
-0.00109993
-0.000830842
-0.00101607
-0.000871146
-0.000918623
-0.000889943
-0.000809639
-0.000883984
-0.000692533
-0.000851295
-0.000571923
-0.000791819
-0.000453196
-0.000707883
-0.000341873
-0.000604309
-0.000242872
-0.000488095
-0.000159866
-0.000367685
-9.48792e-05
-0.00025201
-4.8209e-05
-0.000149599
-1.86158e-05
-6.79924e-05
-3.66001e-06
-1.36065e-05
7.97389e-06
-1.21276e-05
8.47768e-05
-4.15282e-05
0.000217122
-8.27726e-05
0.000318268
-0.000132079
0.000396291
-0.000187016
0.000458855
-0.000246115
0.000511844
-0.000308484
0.000558932
-0.000373499
0.000601777
-0.000440598
0.000640544
-0.000509181
0.000674486
-0.00057858
0.000702422
-0.000648059
0.000723082
-0.000716842
0.000735301
-0.000784137
0.000738134
-0.00084917
0.000730905
-0.000911214
0.00071323
-0.000969629
0.000685026
-0.00102389
0.000646497
-0.00107361
0.000598109
-0.00111857
0.000540553
-0.00115869
0.000474687
-0.00119404
0.000401471
-0.00122481
0.000321902
-0.00125123
0.000236953
-0.00127355
0.000147529
-0.00129197
5.44399e-05
-0.0013066
-4.16027e-05
-0.00131734
-0.000139943
-0.00132388
-0.000239958
-0.00132561
-0.000340959
-0.00132157
-0.000442079
-0.00131044
-0.000542139
-0.00129056
-0.000639487
-0.00126001
-0.000731839
-0.00121675
-0.000816163
-0.00115896
-0.000888633
-0.00108535
-0.000944752
-0.000995627
-0.000979667
-0.000890869
-0.000988742
-0.000773826
-0.000968338
-0.000648933
-0.000916713
-0.00052199
-0.000834825
-0.000399504
-0.000726795
-0.000287779
-0.000599821
-0.000191995
-0.000463468
-0.000115515
-0.000328489
-5.9587e-05
-0.000205528
-2.34607e-05
-0.000104119
-4.77995e-06
-3.22873e-05
3.19394e-06
-1.21936e-05
9.69704e-05
-4.18502e-05
0.000246778
-8.35276e-05
0.000359945
-0.000133367
0.000446131
-0.000188832
0.00051432
-0.000248348
0.000571361
-0.000310937
0.00062152
-0.000375901
0.000666741
-0.000442627
0.00070727
-0.000510474
0.000742334
-0.000578745
0.000770692
-0.000646678
0.000791016
-0.000713482
0.000802104
-0.000778354
0.000803006
-0.000840526
0.000793077
-0.000899299
0.000772003
-0.000954083
0.000739811
-0.00100444
0.000696851
-0.00105009
0.00064376
-0.00109095
0.000581413
-0.0011271
0.000510841
-0.00115879
0.000433155
-0.00118635
0.000349466
-0.00121021
0.000260811
-0.00123078
0.000168105
-0.00124845
7.21103e-05
-0.00126349
-2.6565e-05
-0.00127599
-0.000127442
-0.00128582
-0.000230125
-0.00129256
-0.000334228
-0.00129538
-0.000439258
-0.00129305
-0.000544467
-0.00128387
-0.000648662
-0.00126571
-0.00075
-0.0012361
-0.000845777
-0.00119246
-0.000932269
-0.00113251
-0.0010047
-0.00105472
-0.00105746
-0.000958889
-0.00108457
-0.00084667
-0.00108056
-0.000721819
-0.00104156
-0.000590109
-0.000966534
-0.000458756
-0.000858148
-0.000335412
-0.000723165
-0.000226965
-0.000571915
-0.000138461
-0.000416994
-7.24727e-05
-0.000271516
-2.90468e-05
-0.000147545
-6.10372e-06
-5.52303e-05
-2.90978e-06
-1.19663e-05
0.000108937
-4.12648e-05
0.000276077
-8.26143e-05
0.000401295
-0.000132169
0.000495686
-0.000187321
0.000569472
-0.0002464
0.000630439
-0.00030833
0.00068345
-0.00037234
0.000730752
-0.000437762
0.000772692
-0.000503916
0.000808488
-0.000570074
0.00083685
-0.000635459
0.0008564
-0.000699265
0.000865911
-0.000760695
0.000864437
-0.000819002
0.000851384
-0.000873532
0.000826533
-0.000923768
0.000790047
-0.000969366
0.000742449
-0.00101018
0.000684572
-0.00104625
0.000617486
-0.00107782
0.000542407
-0.00110526
0.000460598
-0.00112907
0.000373277
-0.0011498
0.00028154
-0.001168
0.000186309
-0.00118419
8.83008e-05
-0.00119879
-1.19731e-05
-0.00121204
-0.000114189
-0.00122401
-0.000218157
-0.00123446
-0.00032377
-0.00124283
-0.000430895
-0.00124807
-0.000539228
-0.00124863
-0.000648101
-0.00124238
-0.000756246
-0.00122665
-0.000861504
-0.00119837
-0.000960554
-0.00115436
-0.00104871
-0.00109189
-0.00111993
-0.00100929
-0.00116717
-0.000906723
-0.00118312
-0.000786743
-0.00116154
-0.000654529
-0.00109875
-0.000517539
-0.000995137
-0.000384546
-0.000856158
-0.0002642
-0.000692261
-0.000163534
-0.000517659
-8.68633e-05
-0.000348187
-3.54124e-05
-0.000198996
-7.6518e-06
-8.29909e-05
-1.05616e-05
-1.14449e-05
0.000120382
-3.97657e-05
0.000304397
-8.00184e-05
0.000441548
-0.000128465
0.000544132
-0.000182465
0.000623472
-0.000240256
0.000688231
-0.000300669
0.000743863
-0.000362854
0.000792936
-0.000426084
0.000835922
-0.000489645
0.000872049
-0.000552787
0.000899993
-0.000614723
0.000918337
-0.000674653
0.00092584
-0.0007318
0.000921584
-0.000785458
0.000905042
-0.000835039
0.000876114
-0.000880118
0.000835126
-0.000920461
0.000782792
-0.000956046
0.000720156
-0.000987049
0.000648489
-0.00101383
0.000569187
-0.00103688
0.000483652
-0.0010568
0.000393198
-0.00107423
0.000298967
-0.0010898
0.000201879
-0.00110411
0.000102608
-0.00111766
1.57954e-06
-0.00113084
-0.000101008
-0.00114386
-0.000205135
-0.00115671
-0.000310925
-0.00116905
-0.000418554
-0.00118015
-0.000528126
-0.00118875
-0.000639502
-0.00119294
-0.000752052
-0.00119012
-0.000864325
-0.001177
-0.000973676
-0.00114982
-0.00107589
-0.00110479
-0.00116497
-0.00103877
-0.00123318
-0.000950205
-0.00127169
-0.000839956
-0.00127179
-0.000711982
-0.00122672
-0.000573364
-0.00113376
-0.000433543
-0.000995979
-0.000302801
-0.000823003
-0.000190347
-0.000630113
-0.000102646
-0.000435888
-4.25503e-05
-0.000259091
-9.43293e-06
-0.000116108
-1.99945e-05
-1.06411e-05
0.000131023
-3.73802e-05
0.000331136
-7.57811e-05
0.000479949
-0.00012231
0.000590661
-0.000174337
0.000675499
-0.000230023
0.000743916
-0.0002881
0.00080194
-0.000347638
0.000852475
-0.000407859
0.000896143
-0.000468017
0.000932206
-0.000527351
0.000959327
-0.00058508
0.000976067
-0.000640429
0.000981189
-0.000692661
0.000973817
-0.000741136
0.000953517
-0.000785352
0.00092033
-0.000824986
0.00087476
-0.000859924
0.00081773
-0.000890259
0.000750491
-0.000916283
0.000674513
-0.000938451
0.000591355
-0.000957339
0.00050254
-0.000973596
0.000409455
-0.0009879
0.00031327
-0.00100091
0.000214893
-0.00101326
0.000114954
-0.00102549
1.38062e-05
-0.00103805
-8.84476e-05
-0.00105127
-0.000191916
-0.0010653
-0.000296889
-0.00108008
-0.000403777
-0.00109518
-0.000513022
-0.00110973
-0.000624953
-0.00112221
-0.000739569
-0.00113034
-0.000856201
-0.00113093
-0.000973081
-0.00112001
-0.00108682
-0.00109304
-0.00119193
-0.00104563
-0.00128059
-0.00097442
-0.0013429
-0.000878269
-0.00136794
-0.000759327
-0.00134567
-0.000623574
-0.00126951
-0.000480481
-0.00113907
-0.000341593
-0.000961892
-0.000218314
-0.000753392
-0.000119599
-0.000534603
-5.04075e-05
-0.000328282
-1.14448e-05
-0.000155071
-3.14393e-05
-9.57861e-06
0.000140601
-3.41683e-05
0.000355726
-6.99976e-05
0.000515778
-0.000113834
0.000634497
-0.000163105
0.00072477
-0.000215912
0.000796723
-0.000270894
0.000856922
-0.000327041
0.000908623
-0.000383524
0.000952626
-0.000439578
0.00098826
-0.000494445
0.00101419
-0.000547371
0.00102899
-0.000597621
0.00103144
-0.000644528
0.00102072
-0.000687533
0.000996523
-0.000726236
0.000959033
-0.000760428
0.000908952
-0.000790106
0.000847408
-0.00081547
0.000775856
-0.0008369
0.000695944
-0.000854917
0.000609372
-0.000870137
0.00051776
-0.000883223
0.000422541
-0.000894844
0.000324891
-0.000905645
0.000225694
-0.000916225
0.000125534
-0.000927123
2.47036e-05
-0.000938808
-7.67622e-05
-0.000951667
-0.000179057
-0.000965984
-0.000282573
-0.000981887
-0.000387874
-0.000999269
-0.00049564
-0.00101765
-0.000606572
-0.001036
-0.000721217
-0.00105253
-0.000839674
-0.00106447
-0.000961139
-0.00106798
-0.00108331
-0.00105825
-0.00120166
-0.00102994
-0.0013089
-0.000978097
-0.00139475
-0.000899461
-0.00144658
-0.000793915
-0.00145121
-0.00066563
-0.00139779
-0.000523324
-0.00128138
-0.000379211
-0.001106
-0.000246684
-0.000885918
-0.000137398
-0.000643889
-5.88869e-05
-0.000406793
-1.36753e-05
-0.000200283
-4.51146e-05
-8.29141e-06
0.000148893
-3.02196e-05
0.000377654
-6.28126e-05
0.000548371
-0.000103232
0.000674917
-0.00014902
0.000770558
-0.000198236
0.00084594
-0.000249437
0.000908122
-0.000301535
0.000960721
-0.000353657
0.00100475
-0.000405029
0.00103963
-0.000454913
0.00106408
-0.000502598
0.00107668
-0.000547419
0.00107626
-0.00058879
0.00106209
-0.000626256
0.00103399
-0.000659525
0.000992303
-0.000688501
0.000937928
-0.000713284
0.00087219
-0.00073416
0.000796732
-0.000751571
0.000713355
-0.00076607
0.000623871
-0.000778276
0.000529966
-0.000788828
0.000433093
-0.000798352
0.000334416
-0.000807439
0.000234781
-0.000816626
0.000134722
-0.000826405
3.44823e-05
-0.000837219
-6.59483e-05
-0.000849466
-0.000166809
-0.000863497
-0.000268542
-0.000879587
-0.000371784
-0.000897872
-0.000477354
-0.000918242
-0.000586202
-0.000940159
-0.000699301
-0.00096242
-0.000817413
-0.000982873
-0.000940686
-0.000998163
-0.00106802
-0.00100361
-0.00119621
-0.00099345
-0.00131907
-0.000961507
-0.00142669
-0.000902528
-0.00150556
-0.000813902
-0.00153984
-0.000697387
-0.00151431
-0.000560122
-0.00141864
-0.000414214
-0.00125191
-0.000274593
-0.00102554
-0.000155636
-0.000762846
-6.78512e-05
-0.000494578
-1.61024e-05
-0.000252031
-6.12169e-05
-6.82242e-06
0.000155715
-2.56493e-05
0.000396481
-5.44146e-05
0.000577136
-9.07626e-05
0.000711265
-0.000132404
0.000812199
-0.000177392
0.000890928
-0.000224207
0.000954938
-0.000271694
0.00100821
-0.000318942
0.001052
-0.000365177
0.00108587
-0.0004097
0.0011086
-0.000451862
0.00111884
-0.000491082
0.00111548
-0.000526877
0.00109789
-0.000558901
0.00106601
-0.000586978
0.00102038
-0.000611113
0.000962063
-0.000631494
0.000892572
-0.00064847
0.000813708
-0.000662516
0.000727401
-0.000674186
0.000635541
-0.000684071
0.000539851
-0.000692759
0.000441782
-0.000700808
0.000342465
-0.000708727
0.000242699
-0.000716975
0.00014297
-0.00072597
4.34771e-05
-0.000736099
-5.58194e-05
-0.000747733
-0.000155175
-0.00076124
-0.000255035
-0.000776972
-0.000356051
-0.000795239
-0.000459088
-0.000816217
-0.000565224
-0.000839805
-0.000675713
-0.000865386
-0.000791832
-0.000891516
-0.000914556
-0.000915556
-0.00104398
-0.000933366
-0.0011784
-0.00093924
-0.00131319
-0.000926327
-0.0014396
-0.000887746
-0.00154414
-0.000818427
-0.00160916
-0.000717316
-0.00161542
-0.000589209
-0.00154675
-0.000445214
-0.00139591
-0.000301127
-0.00116963
-0.000173846
-0.000890127
-7.71298e-05
-0.000591294
-1.86942e-05
-0.000310467
-7.99112e-05
-5.22094e-06
0.000160936
-2.05932e-05
0.000411854
-4.50285e-05
0.000601572
-7.67313e-05
0.000742968
-0.000113642
0.00084911
-0.000153843
0.000931129
-0.000195759
0.000996853
-0.00023817
0.00105062
-0.000280138
0.00109396
-0.000320901
0.00112663
-0.000359808
0.00114751
-0.000396291
0.00115532
-0.000429869
0.00114906
-0.000460169
0.00112819
-0.000486963
0.00109281
-0.000510179
0.0010436
-0.000529917
0.0009818
-0.000546431
0.000909086
-0.000560109
0.000827386
-0.00057143
0.000738721
-0.000580923
0.000645034
-0.000589129
0.000548056
-0.000596564
0.000449217
-0.000603703
0.000349604
-0.000610966
0.000249962
-0.000618722
0.000150727
-0.000627307
5.20614e-05
-0.000637035
-4.60909e-05
-0.000648228
-0.000143982
-0.000661229
-0.000242035
-0.000676415
-0.000340866
-0.000694187
-0.000441316
-0.000714917
-0.000544494
-0.00073884
-0.00065179
-0.00076585
-0.000764822
-0.000795194
-0.000885212
-0.000825057
-0.00101411
-0.00085211
-0.00115135
-0.00087118