/*--------------------------------*- C++ -*----------------------------------*\
  =========                 |
  \\      /  F ield         | OpenFOAM: The Open Source CFD Toolbox
   \\    /   O peration     | Website:  https://openfoam.org
    \\  /    A nd           | Version:  7
     \\/     M anipulation  |
\*---------------------------------------------------------------------------*/
FoamFile
{
    version     2.0;
    format      ascii;
    class       volVectorField;
    location    "350";
    object      U;
}
// * * * * * * * * * * * * * * * * * * * * * * * * * * * * * * * * * * * * * //

dimensions      [0 1 -1 0 0 0 0];

internalField   nonuniform List<vector> 
2500
(
(0.000110126 -0.000111261 0)
(0.000488412 -0.000151073 0)
(0.000833198 -0.000126293 0)
(0.000998336 -7.90872e-05 0)
(0.000907902 -3.11784e-05 0)
(0.00055713 1.15817e-05 0)
(-3.64686e-05 4.82729e-05 0)
(-0.000853108 8.02713e-05 0)
(-0.0018775 0.00010974 0)
(-0.0031002 0.000138657 0)
(-0.00451604 0.000168367 0)
(-0.00612122 0.000199463 0)
(-0.00791001 0.000231821 0)
(-0.00987176 0.000264689 0)
(-0.0119883 0.000296779 0)
(-0.0142318 0.00032635 0)
(-0.016564 0.000351293 0)
(-0.0189346 0.000369224 0)
(-0.0212826 0.000377606 0)
(-0.023536 0.000373911 0)
(-0.0256146 0.000355823 0)
(-0.0274329 0.000321486 0)
(-0.0289032 0.000269774 0)
(-0.0299412 0.000200561 0)
(-0.0304712 0.000114987 0)
(-0.0304318 1.56031e-05 0)
(-0.0297816 -9.36889e-05 0)
(-0.0285042 -0.000207575 0)
(-0.0266121 -0.000319693 0)
(-0.024149 -0.000423053 0)
(-0.0211901 -0.000510598 0)
(-0.0178392 -0.000575882 0)
(-0.0142248 -0.000613763 0)
(-0.010492 -0.000621026 0)
(-0.00679419 -0.000596818 0)
(-0.0032829 -0.000542801 0)
(-9.73667e-05 -0.000462963 0)
(0.00264462 -0.000363371 0)
(0.00485377 -0.000251537 0)
(0.00647365 -0.000135199 0)
(0.00748233 -2.14457e-05 0)
(0.00789117 8.37388e-05 0)
(0.00774117 0.000175812 0)
(0.00709876 0.000251466 0)
(0.00605288 0.000307709 0)
(0.00471531 0.000340369 0)
(0.00322657 0.000342277 0)
(0.00177423 0.000300626 0)
(0.000625041 0.000191947 0)
(2.97704e-05 2.97482e-05 0)
(0.000155386 -0.000495612 0)
(0.000689478 -0.000691668 0)
(0.000981309 -0.000438844 0)
(0.000780571 1.0349e-05 0)
(-4.8273e-05 0.000515049 0)
(-0.00152663 0.00100975 0)
(-0.00363167 0.00147245 0)
(-0.00633024 0.00190336 0)
(-0.00959228 0.00231101 0)
(-0.0133939 0.00270409 0)
(-0.0177144 0.00308709 0)
(-0.0225303 0.00345866 0)
(-0.0278086 0.00381143 0)
(-0.0335003 0.00413269 0)
(-0.0395354 0.00440544 0)
(-0.0458191 0.00460957 0)
(-0.0522302 0.00472323 0)
(-0.0586213 0.00472429 0)
(-0.0648209 0.00459199 0)
(-0.0706384 0.00430868 0)
(-0.0758699 0.00386173 0)
(-0.0803075 0.00324536 0)
(-0.0837485 0.00246235 0)
(-0.0860075 0.00152543 0)
(-0.0869273 0.000458115 0)
(-0.0863911 -0.000705259 0)
(-0.0843326 -0.00192059 0)
(-0.080744 -0.0031355 0)
(-0.0756814 -0.00429236 0)
(-0.069267 -0.00533169 0)
(-0.0616873 -0.0061964 0)
(-0.0531872 -0.00683623 0)
(-0.0440594 -0.00721216 0)
(-0.0346311 -0.00730021 0)
(-0.0252463 -0.00709418 0)
(-0.016247 -0.00660673 0)
(-0.00795336 -0.00586874 0)
(-0.000645007 -0.00492694 0)
(0.00545489 -0.00383994 0)
(0.0101913 -0.00267274 0)
(0.0134842 -0.00149073 0)
(0.0153294 -0.00035541 0)
(0.015796 0.000678414 0)
(0.0150205 0.00156279 0)
(0.0132022 0.00225214 0)
(0.0106011 0.00269587 0)
(0.00754194 0.00282849 0)
(0.00443395 0.00256273 0)
(0.00181829 0.00181023 0)
(0.000193553 0.000627044 0)
(0.000130164 -0.000842485 0)
(0.000379012 -0.000974552 0)
(6.76929e-05 -0.000209556 0)
(-0.0010517 0.000958839 0)
(-0.00310578 0.00225486 0)
(-0.00611536 0.00354295 0)
(-0.0100569 0.00477182 0)
(-0.0148938 0.00593508 0)
(-0.0205893 0.00704371 0)
(-0.0271079 0.00810867 0)
(-0.0344106 0.00913148 0)
(-0.0424467 0.0101004 0)
(-0.0511454 0.0109901 0)
(-0.0604079 0.0117635 0)
(-0.0701021 0.0123743 0)
(-0.0800596 0.0127709 0)
(-0.0900754 0.0128996 0)
(-0.099911 0.0127091 0)
(-0.109301 0.0121549 0)
(-0.117959 0.0112028 0)
(-0.125594 0.00983398 0)
(-0.131918 0.00804796 0)
(-0.136663 0.00586579 0)
(-0.139593 0.00333181 0)
(-0.14052 0.000514194 0)
(-0.139315 -0.00249618 0)
(-0.135921 -0.00558902 0)
(-0.130357 -0.00863946 0)
(-0.12272 -0.0115143 0)
(-0.113194 -0.0140795 0)
(-0.102038 -0.0162082 0)
(-0.0895817 -0.0177899 0)
(-0.076215 -0.0187391 0)
(-0.0623707 -0.0190022 0)
(-0.0485058 -0.0185637 0)
(-0.0350794 -0.0174483 0)
(-0.0225295 -0.0157209 0)
(-0.0112495 -0.0134819 0)
(-0.00156741 -0.0108602 0)
(0.00627218 -0.00800338 0)
(0.0121202 -0.00506633 0)
(0.0159304 -0.00220064 0)
(0.0177603 0.000451835 0)
(0.0177672 0.0027611 0)
(0.0162043 0.00460354 0)
(0.0134155 0.00585065 0)
(0.00983287 0.00635474 0)
(0.00599089 0.00594075 0)
(0.00259113 0.00443249 0)
(0.000303806 0.00178737 0)
(6.78743e-05 -0.0009548 0)
(-0.000257341 -0.000622386 0)
(-0.00156418 0.00100092 0)
(-0.00402767 0.00320186 0)
(-0.00770826 0.00558504 0)
(-0.0126011 0.00795414 0)
(-0.0186732 0.0102326 0)
(-0.0258839 0.0124071 0)
(-0.0341912 0.014487 0)
(-0.0435481 0.0164785 0)
(-0.0538949 0.0183708 0)
(-0.065149 0.0201306 0)
(-0.0771951 0.0217025 0)
(-0.0898788 0.0230129 0)
(-0.103002 0.0239752 0)
(-0.116323 0.024497 0)
(-0.129558 0.024487 0)
(-0.142392 0.0238626 0)
(-0.154484 0.0225571 0)
(-0.165481 0.0205266 0)
(-0.175035 0.0177561 0)
(-0.182816 0.0142639 0)
(-0.188525 0.010105 0)
(-0.191911 0.00537173 0)
(-0.192783 0.000193346 0)
(-0.191018 -0.00526714 0)
(-0.186575 -0.0108192 0)
(-0.179492 -0.0162536 0)
(-0.169896 -0.0213509 0)
(-0.157999 -0.0258928 0)
(-0.144096 -0.0296737 0)
(-0.128561 -0.0325143 0)
(-0.111834 -0.0342734 0)
(-0.0944051 -0.03486 0)
(-0.0768015 -0.0342415 0)
(-0.0595605 -0.0324497 0)
(-0.0432064 -0.0295806 0)
(-0.0282241 -0.0257905 0)
(-0.0150338 -0.021286 0)
(-0.00396792 -0.0163097 0)
(0.0047471 -0.0111243 0)
(0.0110035 -0.00599676 0)
(0.0148197 -0.00118368 0)
(0.0163398 0.00307251 0)
(0.0158291 0.00654136 0)
(0.0136697 0.00899064 0)
(0.0103522 0.0101699 0)
(0.00648667 0.00979811 0)
(0.00288311 0.00757664 0)
(0.000344843 0.00326214 0)
(-1.41891e-05 -0.000677204 0)
(-0.0011108 0.00067801 0)
(-0.00370172 0.00356589 0)
(-0.00783493 0.00711092 0)
(-0.0134582 0.0108385 0)
(-0.0205174 0.0145191 0)
(-0.028959 0.0180666 0)
(-0.0387333 0.0214657 0)
(-0.0497907 0.0247215 0)
(-0.0620713 0.0278271 0)
(-0.075492 0.0307483 0)
(-0.0899344 0.0334179 0)
(-0.105236 0.0357388 0)
(-0.121186 0.0375909 0)
(-0.137522 0.0388406 0)
(-0.153936 0.0393512 0)
(-0.170081 0.0389945 0)
(-0.185579 0.0376617 0)
(-0.200039 0.0352726 0)
(-0.213072 0.0317849 0)
(-0.2243 0.0272004 0)
(-0.233377 0.0215693 0)
(-0.239998 0.0149922 0)
(-0.243914 0.00761907 0)
(-0.244936 -0.000352823 0)
(-0.242949 -0.00868433 0)
(-0.237912 -0.0171033 0)
(-0.229868 -0.0253153 0)
(-0.218941 -0.0330142 0)
(-0.205342 -0.0398952 0)
(-0.189371 -0.0456704 0)
(-0.171409 -0.0500847 0)
(-0.151915 -0.0529326 0)
(-0.131411 -0.054074 0)
(-0.110471 -0.0534476 0)
(-0.0896946 -0.0510798 0)
(-0.0696812 -0.0470881 0)
(-0.0510035 -0.041678 0)
(-0.0341753 -0.0351319 0)
(-0.0196238 -0.027792 0)
(-0.00766393 -0.0200389 0)
(0.00151985 -0.0122693 0)
(0.00788593 -0.0048768 0)
(0.011541 0.00176059 0)
(0.0127361 0.00728179 0)
(0.0118619 0.0113292 0)
(0.00943815 0.0135304 0)
(0.00612292 0.0134787 0)
(0.00279375 0.0107249 0)
(0.000341427 0.00478747 0)
(-0.000110659 8.388e-05 0)
(-0.00211758 0.00313715 0)
(-0.00620296 0.0077514 0)
(-0.0122455 0.0129631 0)
(-0.0200441 0.0182749 0)
(-0.0294766 0.0234638 0)
(-0.0404586 0.0284572 0)
(-0.0529257 0.0332474 0)
(-0.0668175 0.0378337 0)
(-0.0820581 0.0421885 0)
(-0.0985383 0.0462426 0)
(-0.116103 0.0498837 0)
(-0.134542 0.0529633 0)
(-0.153592 0.0553082 0)
(-0.172935 0.0567352 0)
(-0.192209 0.0570657 0)
(-0.211019 0.0561409 0)
(-0.228953 0.0538348 0)
(-0.245593 0.0500656 0)
(-0.260532 0.0448043 0)
(-0.273389 0.0380801 0)
(-0.283818 0.0299835 0)
(-0.29152 0.020665 0)
(-0.296246 0.0103338 0)
(-0.297807 -0.000747776 0)
(-0.29608 -0.0122693 0)
(-0.291006 -0.0238827 0)
(-0.282603 -0.035213 0)
(-0.270966 -0.0458698 0)
(-0.256277 -0.0554612 0)
(-0.238809 -0.0636115 0)
(-0.218925 -0.0699806 0)
(-0.197079 -0.0742851 0)
(-0.17381 -0.0763194 0)
(-0.149723 -0.0759748 0)
(-0.125475 -0.073255 0)
(-0.101743 -0.0682834 0)
(-0.0791941 -0.0613032 0)
(-0.0584467 -0.0526669 0)
(-0.0400372 -0.0428169 0)
(-0.0243862 -0.0322597 0)
(-0.0117724 -0.0215359 0)
(-0.00231507 -0.0111932 0)
(0.00403544 -0.00176653 0)
(0.00749854 0.00622756 0)
(0.00845402 0.0122866 0)
(0.00743371 0.0158967 0)
(0.00512449 0.0165085 0)
(0.0024382 0.0135091 0)
(0.000311397 0.00618913 0)
(-0.000218371 0.00139415 0)
(-0.00323423 0.00690371 0)
(-0.00896037 0.0137453 0)
(-0.0170743 0.0209527 0)
(-0.0272001 0.0280737 0)
(-0.0391342 0.03494 0)
(-0.0527536 0.0415213 0)
(-0.0679746 0.0478294 0)
(-0.0847224 0.0538579 0)
(-0.102902 0.059551 0)
(-0.122377 0.064795 0)
(-0.142954 0.069423 0)
(-0.164383 0.0732284 0)
(-0.186353 0.0759833 0)
(-0.208504 0.077457 0)
(-0.230437 0.0774358 0)
(-0.251732 0.0757398 0)
(-0.27196 0.0722372 0)
(-0.290697 0.0668553 0)
(-0.307542 0.0595875 0)
(-0.322119 0.050496 0)
(-0.334092 0.0397124 0)
(-0.343165 0.027435 0)
(-0.349087 0.0139247 0)
(-0.351653 -0.000499725 0)
(-0.350716 -0.0154676 0)
(-0.346181 -0.0305643 0)
(-0.338016 -0.0453416 0)
(-0.326266 -0.0593279 0)
(-0.311059 -0.072043 0)
(-0.292614 -0.0830164 0)
(-0.271254 -0.0918106 0)
(-0.247408 -0.0980462 0)
(-0.221609 -0.10143 0)
(-0.194486 -0.101782 0)
(-0.166748 -0.0990577 0)
(-0.139151 -0.0933647 0)
(-0.112466 -0.0849671 0)
(-0.0874346 -0.0742777 0)
(-0.0647235 -0.0618379 0)
(-0.0448826 -0.0482867 0)
(-0.028309 -0.034323 0)
(-0.015221 -0.0206689 0)
(-0.00564403 -0.00803991 0)
(0.000591808 0.00287062 0)
(0.00384349 0.0113905 0)
(0.00464269 0.0168462 0)
(0.00369239 0.0185323 0)
(0.00191574 0.0156717 0)
(0.000268528 0.00735865 0)
(-0.00033454 0.00330138 0)
(-0.00442439 0.0120789 0)
(-0.0118801 0.0216685 0)
(-0.0221552 0.031197 0)
(-0.0346822 0.0403345 0)
(-0.049168 0.0490213 0)
(-0.0654468 0.0573012 0)
(-0.0834118 0.0652189 0)
(-0.10297 0.0727628 0)
(-0.124007 0.0798435 0)
(-0.146357 0.0862946 0)
(-0.169795 0.0918886 0)
(-0.194032 0.0963591 0)
(-0.218725 0.0994251 0)
(-0.243486 0.100815 0)
(-0.267898 0.100291 0)
(-0.291531 0.0976604 0)
(-0.31396 0.0927978 0)
(-0.334771 0.0856469 0)
(-0.353575 0.0762271 0)
(-0.37001 0.0646335 0)
(-0.383749 0.0510341 0)
(-0.394494 0.0356661 0)
(-0.401986 0.0188314 0)
(-0.405995 0.000892118 0)
(-0.406338 -0.0177331 0)
(-0.40287 -0.0365752 0)
(-0.395502 -0.0551206 0)
(-0.384209 -0.0728217 0)
(-0.369044 -0.0891095 0)
(-0.350156 -0.103413 0)
(-0.3278 -0.115184 0)
(-0.302354 -0.123929 0)
(-0.274322 -0.129239 0)
(-0.244335 -0.130832 0)
(-0.213138 -0.128585 0)
(-0.181565 -0.122557 0)
(-0.150496 -0.113008 0)
(-0.120814 -0.100394 0)
(-0.093341 -0.0853497 0)
(-0.0687889 -0.0686523 0)
(-0.0477053 -0.0511746 0)
(-0.0304379 -0.0338365 0)
(-0.0171127 -0.0175611 0)
(-0.00762788 -0.00324754 0)
(-0.00166234 0.00823649 0)
(0.00130491 0.0160391 0)
(0.0019857 0.0192865 0)
(0.00130305 0.0170411 0)
(0.000223038 0.00823517 0)
(-0.000456049 0.00583603 0)
(-0.00565187 0.018719 0)
(-0.0148705 0.0315786 0)
(-0.0273273 0.0437404 0)
(-0.0422545 0.0550804 0)
(-0.0592668 0.0657052 0)
(-0.078153 0.0757656 0)
(-0.098781 0.085353 0)
(-0.121039 0.0944522 0)
(-0.144789 0.102936 0)
(-0.169839 0.110579 0)
(-0.195937 0.117093 0)
(-0.222766 0.122152 0)
(-0.249961 0.125429 0)
(-0.277119 0.126621 0)
(-0.303823 0.125473 0)
(-0.329648 0.121794 0)
(-0.354181 0.115469 0)
(-0.377028 0.106463 0)
(-0.397814 0.0948202 0)
(-0.416194 0.0806639 0)
(-0.431846 0.0641906 0)
(-0.444471 0.0456661 0)
(-0.453796 0.0254211 0)
(-0.459569 0.00384861 0)
(-0.461569 -0.0185977 0)
(-0.459607 -0.0414061 0)
(-0.45353 -0.0640096 0)
(-0.443237 -0.0857928 0)
(-0.428698 -0.106103 0)
(-0.409967 -0.124267 0)
(-0.387207 -0.139619 0)
(-0.36071 -0.15153 0)
(-0.330917 -0.159452 0)
(-0.298423 -0.162966 0)
(-0.263982 -0.161825 0)
(-0.228483 -0.155999 0)
(-0.192913 -0.145706 0)
(-0.158304 -0.131417 0)
(-0.125663 -0.113842 0)
(-0.0958993 -0.0938985 0)
(-0.0697544 -0.0726483 0)
(-0.0477487 -0.0512363 0)
(-0.0301456 -0.0308275 0)
(-0.0169395 -0.0125623 0)
(-0.00786455 0.00246408 0)
(-0.00241858 0.0131949 0)
(0.00011263 0.0185763 0)
(0.000651785 0.0175106 0)
(0.000181519 0.00879214 0)
(-0.000579014 0.00900972 0)
(-0.0068777 0.0268347 0)
(-0.0178371 0.043471 0)
(-0.0324289 0.0585566 0)
(-0.049684 0.072261 0)
(-0.0691254 0.084916 0)
(-0.0904963 0.0968122 0)
(-0.113638 0.108101 0)
(-0.138418 0.118766 0)
(-0.164676 0.128638 0)
(-0.192197 0.137436 0)
(-0.220706 0.144806 0)
(-0.249867 0.150372 0)
(-0.279304 0.153766 0)
(-0.308613 0.154665 0)
(-0.337384 0.152805 0)
(-0.365206 0.148005 0)
(-0.391684 0.140163 0)
(-0.416443 0.129264 0)
(-0.439127 0.115378 0)
(-0.459402 0.0986472 0)
(-0.476955 0.079291 0)
(-0.491491 0.0575946 0)
(-0.502732 0.0339083 0)
(-0.510416 0.00864535 0)
(-0.514296 -0.0177176 0)
(-0.51415 -0.0446395 0)
(-0.509773 -0.0715159 0)
(-0.500993 -0.0976787 0)
(-0.487688 -0.122404 0)
(-0.469805 -0.144927 0)
(-0.447386 -0.164461 0)
(-0.4206 -0.180236 0)
(-0.389774 -0.19154 0)
(-0.355419 -0.197776 0)
(-0.318244 -0.19853 0)
(-0.279152 -0.193625 0)
(-0.239211 -0.18318 0)
(-0.199598 -0.167632 0)
(-0.161522 -0.147737 0)
(-0.126128 -0.124539 0)
(-0.0944064 -0.0992998 0)
(-0.0671061 -0.0734193 0)
(-0.0446816 -0.0483464 0)
(-0.0272666 -0.025509 0)
(-0.0146795 -0.00627287 0)
(-0.00645313 0.00806455 0)
(-0.00187313 0.016248 0)
(-1.1697e-05 0.0170129 0)
(0.000147188 0.0090238 0)
(-0.000698738 0.0128131 0)
(-0.0080597 0.0363893 0)
(-0.020682 0.0572794 0)
(-0.0372969 0.0755512 0)
(-0.0567399 0.0917563 0)
(-0.0784458 0.106509 0)
(-0.102113 0.120271 0)
(-0.127555 0.133267 0)
(-0.154617 0.145481 0)
(-0.183119 0.156705 0)
(-0.212825 0.166598 0)
(-0.243442 0.174749 0)
(-0.274625 0.180735 0)
(-0.305993 0.184159 0)
(-0.337148 0.184683 0)
(-0.36769 0.182046 0)
(-0.397225 0.176074 0)
(-0.425376 0.166684 0)
(-0.451785 0.153881 0)
(-0.476113 0.137752 0)
(-0.498044 0.118462 0)
(-0.517281 0.0962462 0)
(-0.533544 0.0714064 0)
(-0.54657 0.044307 0)
(-0.556104 0.0153739 0)
(-0.561903 -0.0149045 0)
(-0.563731 -0.0459739 0)
(-0.561351 -0.0772127 0)
(-0.554535 -0.107923 0)
(-0.543073 -0.137336 0)
(-0.526796 -0.164612 0)
(-0.505605 -0.188863 0)
(-0.479506 -0.209177 0)
(-0.448661 -0.224663 0)
(-0.413428 -0.234521 0)
(-0.374402 -0.23811 0)
(-0.332432 -0.235045 0)
(-0.288611 -0.225265 0)
(-0.24423 -0.209103 0)
(-0.200699 -0.187301 0)
(-0.159429 -0.160997 0)
(-0.121711 -0.131649 0)
(-0.0885967 -0.100937 0)
(-0.0608031 -0.0706438 0)
(-0.0386667 -0.0425444 0)
(-0.0221366 -0.018335 0)
(-0.0108067 0.000396889 0)
(-0.00397008 0.012157 0)
(-0.000684842 0.0154939 0)
(0.000120414 0.00893181 0)
(-0.000809906 0.017214 0)
(-0.00915357 0.0472976 0)
(-0.0233057 0.0728773 0)
(-0.0417699 0.094566 0)
(-0.0631983 0.113382 0)
(-0.0869424 0.130275 0)
(-0.112656 0.145909 0)
(-0.140125 0.160593 0)
(-0.169173 0.174318 0)
(-0.199598 0.186833 0)
(-0.231149 0.197744 0)
(-0.263518 0.206588 0)
(-0.296353 0.212902 0)
(-0.329276 0.216268 0)
(-0.361894 0.216338 0)
(-0.393817 0.212857 0)
(-0.424666 0.205664 0)
(-0.454077 0.194693 0)
(-0.481709 0.179968 0)
(-0.507245 0.1616 0)
(-0.530391 0.139774 0)
(-0.55088 0.114746 0)
(-0.56847 0.0868334 0)
(-0.582934 0.0564157 0)
(-0.594054 0.0239257 0)
(-0.601616 -0.010147 0)
(-0.605402 -0.0452523 0)
(-0.60517 -0.0807756 0)
(-0.600657 -0.116021 0)
(-0.591584 -0.150206 0)
(-0.57767 -0.182457 0)
(-0.558663 -0.211811 0)
(-0.534381 -0.237236 0)
(-0.50477 -0.257668 0)
(-0.469967 -0.272079 0)
(-0.430367 -0.279563 0)
(-0.386672 -0.279446 0)
(-0.339911 -0.271402 0)
(-0.291423 -0.255555 0)
(-0.242779 -0.232541 0)
(-0.195665 -0.20352 0)
(-0.151719 -0.170119 0)
(-0.112369 -0.134309 0)
(-0.0786875 -0.0982561 0)
(-0.0513008 -0.0641565 0)
(-0.0303581 -0.0341173 0)
(-0.0155586 -0.0100887 0)
(-0.00622142 0.00613906 0)
(-0.00138506 0.0128884 0)
(9.91727e-05 0.00851353 0)
(-0.000906922 0.0221565 0)
(-0.0101148 0.0594264 0)
(-0.0256109 0.0900807 0)
(-0.0456929 0.115383 0)
(-0.0688473 0.136893 0)
(-0.0943483 0.155948 0)
(-0.121806 0.173438 0)
(-0.150977 0.189768 0)
(-0.181661 0.204939 0)
(-0.213638 0.218664 0)
(-0.24664 0.230498 0)
(-0.280349 0.239932 0)
(-0.314408 0.246469 0)
(-0.348438 0.249674 0)
(-0.382051 0.249197 0)
(-0.414865 0.244788 0)
(-0.446508 0.236302 0)
(-0.47663 0.223692 0)
(-0.504907 0.20701 0)
(-0.531048 0.186391 0)
(-0.554797 0.162052 0)
(-0.575935 0.134275 0)
(-0.594273 0.103404 0)
(-0.60965 0.069832 0)
(-0.621913 0.0339971 0)
(-0.630902 -0.00361982 0)
(-0.636447 -0.0424895 0)
(-0.638336 -0.0820305 0)
(-0.6363 -0.121584 0)
(-0.630017 -0.160398 0)
(-0.619116 -0.197608 0)
(-0.603203 -0.232226 0)
(-0.581896 -0.263142 0)
(-0.554896 -0.289145 0)
(-0.522059 -0.308986 0)
(-0.483495 -0.321462 0)
(-0.439649 -0.32555 0)
(-0.391369 -0.320554 0)
(-0.33993 -0.306265 0)
(-0.286987 -0.283079 0)
(-0.234458 -0.252066 0)
(-0.184348 -0.214944 0)
(-0.13853 -0.17396 0)
(-0.0985311 -0.131697 0)
(-0.0653803 -0.0908573 0)
(-0.0395246 -0.0540606 0)
(-0.0208384 -0.0237222 0)
(-0.00870287 -0.00201235 0)
(-0.00214436 0.00910073 0)
(7.975e-05 0.00775282 0)
(-0.000984314 0.0275611 0)
(-0.010901 0.0725964 0)
(-0.0275064 0.108652 0)
(-0.0489232 0.137729 0)
(-0.0734947 0.161995 0)
(-0.100424 0.183212 0)
(-0.129277 0.202518 0)
(-0.159779 0.22043 0)
(-0.191706 0.23696 0)
(-0.224818 0.251792 0)
(-0.258832 0.264432 0)
(-0.293419 0.274331 0)
(-0.328216 0.280965 0)
(-0.362842 0.283883 0)
(-0.396909 0.282735 0)
(-0.430036 0.277281 0)
(-0.461858 0.267394 0)
(-0.492037 0.253055 0)
(-0.520275 0.234348 0)
(-0.546314 0.211449 0)
(-0.569949 0.184616 0)
(-0.591024 0.154173 0)
(-0.609427 0.120496 0)
(-0.625078 0.0839988 0)
(-0.637911 0.045122 0)
(-0.64785 0.00433054 0)
(-0.654791 -0.0378835 0)
(-0.658585 -0.0809933 0)
(-0.658991 -0.124413 0)
(-0.655681 -0.167465 0)
(-0.648232 -0.209347 0)
(-0.636134 -0.249109 0)
(-0.618829 -0.28562 0)
(-0.595767 -0.317582 0)
(-0.566493 -0.343555 0)
(-0.530759 -0.362045 0)
(-0.488651 -0.371639 0)
(-0.440701 -0.371181 0)
(-0.387973 -0.359989 0)
(-0.332069 -0.338054 0)
(-0.275049 -0.306188 0)
(-0.21925 -0.266064 0)
(-0.167026 -0.220131 0)
(-0.120457 -0.1714 0)
(-0.0811005 -0.123151 0)
(-0.0498296 -0.0786423 0)
(-0.0267962 -0.0408882 0)
(-0.0115071 -0.0125594 0)
(-0.00300289 0.00399269 0)
(5.73532e-05 0.00661404 0)
(-0.00103716 0.0333262 0)
(-0.0114742 0.0865866 0)
(-0.0289118 0.128307 0)
(-0.0513363 0.161287 0)
(-0.0769746 0.188346 0)
(-0.104965 0.211705 0)
(-0.134828 0.232771 0)
(-0.166255 0.252176 0)
(-0.198996 0.269957 0)
(-0.232792 0.285768 0)
(-0.267342 0.299074 0)
(-0.302307 0.309289 0)
(-0.337315 0.315864 0)
(-0.371978 0.318337 0)
(-0.405906 0.316359 0)
(-0.438716 0.309704 0)
(-0.470051 0.29827 0)
(-0.499592 0.282075 0)
(-0.527068 0.261251 0)
(-0.55227 0.23603 0)
(-0.575054 0.206725 0)
(-0.59534 0.173715 0)
(-0.613105 0.137418 0)
(-0.628363 0.0982745 0)
(-0.641147 0.0567285 0)
(-0.651473 0.013223 0)
(-0.659332 -0.0317991 0)
(-0.664651 -0.077883 0)
(-0.667253 -0.124544 0)
(-0.666841 -0.171217 0)
(-0.662985 -0.217218 0)
(-0.655115 -0.261695 0)
(-0.642542 -0.303579 0)
(-0.624498 -0.341555 0)
(-0.600224 -0.37407 0)
(-0.569084 -0.399382 0)
(-0.530722 -0.415685 0)
(-0.485227 -0.421307 0)
(-0.433286 -0.414968 0)
(-0.376269 -0.396067 0)
(-0.316219 -0.364938 0)
(-0.255706 -0.323007 0)
(-0.197542 -0.272777 0)
(-0.144426 -0.217632 0)
(-0.0985712 -0.161481 0)
(-0.061431 -0.108349 0)
(-0.0335728 -0.0620169 0)
(-0.0147267 -0.0258194 0)
(-0.00400225 -0.00262046 0)
(2.6821e-05 0.00503984 0)
(-0.0010615 0.0393314 0)
(-0.0118037 0.10114 0)
(-0.0297613 0.14872 0)
(-0.0528311 0.185699 0)
(-0.0791538 0.215572 0)
(-0.107809 0.241037 0)
(-0.138269 0.263785 0)
(-0.17019 0.284575 0)
(-0.203294 0.303474 0)
(-0.237299 0.320113 0)
(-0.271888 0.333921 0)
(-0.306709 0.344276 0)
(-0.34138 0.350607 0)
(-0.375504 0.352444 0)
(-0.408686 0.349442 0)
(-0.440546 0.341397 0)
(-0.470738 0.328241 0)
(-0.498966 0.310043 0)
(-0.525 0.286999 0)
(-0.548687 0.25941 0)
(-0.569953 0.227664 0)
(-0.588803 0.192204 0)
(-0.605302 0.153499 0)
(-0.619562 0.112021 0)
(-0.631713 0.0682178 0)
(-0.64187 0.0225083 0)
(-0.650118 -0.0247203 0)
(-0.656473 -0.0730963 0)
(-0.660846 -0.122252 0)
(-0.663005 -0.171764 0)
(-0.662564 -0.221109 0)
(-0.658955 -0.269593 0)
(-0.651424 -0.316285 0)
(-0.639058 -0.359955 0)
(-0.620845 -0.399031 0)
(-0.595781 -0.431616 0)
(-0.563037 -0.45557 0)
(-0.522164 -0.468697 0)
(-0.473314 -0.469031 0)
(-0.417425 -0.455203 0)
(-0.356309 -0.426828 0)
(-0.292585 -0.384807 0)
(-0.229431 -0.331461 0)
(-0.170163 -0.270402 0)
(-0.117757 -0.206156 0)
(-0.0744083 -0.143628 0)
(-0.041272 -0.0875591 0)
(-0.0184397 -0.0421543 0)
(-0.00517972 -0.0109668 0)
(-1.66362e-05 0.00295224 0)
(-0.00105467 0.0454418 0)
(-0.0118672 0.115973 0)
(-0.0300073 0.169538 0)
(-0.0533344 0.210581 0)
(-0.0799365 0.24327 0)
(-0.10884 0.270791 0)
(-0.13947 0.295128 0)
(-0.171441 0.317177 0)
(-0.204445 0.337041 0)
(-0.238178 0.354337 0)
(-0.272305 0.368458 0)
(-0.306461 0.378753 0)
(-0.340253 0.384631 0)
(-0.373277 0.385615 0)
(-0.405137 0.381374 0)
(-0.435459 0.371731 0)
(-0.463917 0.356667 0)
(-0.490249 0.336319 0)
(-0.514273 0.310958 0)
(-0.535899 0.280973 0)
(-0.555128 0.246836 0)
(-0.572046 0.209062 0)
(-0.586804 0.16818 0)
(-0.599602 0.124691 0)
(-0.610655 0.0790502 0)
(-0.620167 0.031651 0)
(-0.628306 -0.0171759 0)
(-0.63518 -0.0671442 0)
(-0.640795 -0.118007 0)
(-0.645008 -0.169496 0)
(-0.647518 -0.221271 0)
(-0.647818 -0.272844 0)
(-0.645176 -0.323491 0)
(-0.638625 -0.372159 0)
(-0.626992 -0.417382 0)
(-0.608984 -0.457236 0)
(-0.58333 -0.48936 0)
(-0.549009 -0.511101 0)
(-0.505525 -0.51979 0)
(-0.453188 -0.513165 0)
(-0.393335 -0.489874 0)
(-0.328391 -0.449977 0)
(-0.261701 -0.395279 0)
(-0.197123 -0.329365 0)
(-0.138436 -0.257267 0)
(-0.08873 -0.184829 0)
(-0.04994 -0.117948 0)
(-0.0226986 -0.0619494 0)
(-0.00656417 -0.0213062 0)
(-7.70326e-05 0.000255794 0)
(-0.00101553 0.0515126 0)
(-0.0116528 0.130783 0)
(-0.0296225 0.190385 0)
(-0.0528041 0.235526 0)
(-0.0792687 0.271024 0)
(-0.107997 0.300541 0)
(-0.138364 0.326361 0)
(-0.16994 0.349527 0)
(-0.202386 0.370187 0)
(-0.235374 0.387948 0)
(-0.268554 0.402178 0)
(-0.301547 0.412197 0)
(-0.333954 0.417397 0)
(-0.365368 0.417304 0)
(-0.395397 0.411603 0)
(-0.423685 0.400159 0)
(-0.449934 0.383017 0)
(-0.473925 0.360391 0)
(-0.495532 0.332648 0)
(-0.514732 0.300271 0)
(-0.531599 0.263823 0)
(-0.546291 0.223898 0)
(-0.559033 0.181078 0)
(-0.570093 0.135899 0)
(-0.579756 0.0888197 0)
(-0.588289 0.0402092 0)
(-0.595927 -0.00965421 0)
(-0.602856 -0.0605652 0)
(-0.609168 -0.112389 0)
(-0.614821 -0.165007 0)
(-0.619622 -0.218268 0)
(-0.623177 -0.271908 0)
(-0.62485 -0.325458 0)
(-0.623721 -0.378127 0)
(-0.618582 -0.428671 0)
(-0.607965 -0.475291 0)
(-0.590262 -0.515573 0)
(-0.563922 -0.546548 0)
(-0.527759 -0.564919 0)
(-0.481312 -0.567481 0)
(-0.425206 -0.55173 0)
(-0.361379 -0.516555 0)
(-0.293072 -0.46284 0)
(-0.224494 -0.393759 0)
(-0.160188 -0.31461 0)
(-0.104236 -0.232136 0)
(-0.0595524 -0.153551 0)
(-0.0275244 -0.0855855 0)
(-0.00817427 -0.0339164 0)
(-0.000157667 -0.00315781 0)
(-0.000944651 0.057396 0)
(-0.0111596 0.145259 0)
(-0.028602 0.210876 0)
(-0.0512309 0.260124 0)
(-0.0771391 0.298411 0)
(-0.105271 0.329859 0)
(-0.134947 0.357047 0)
(-0.165697 0.381177 0)
(-0.197145 0.402452 0)
(-0.228941 0.42048 0)
(-0.260721 0.434605 0)
(-0.292099 0.444128 0)
(-0.322674 0.448428 0)
(-0.352045 0.447038 0)
(-0.379834 0.439675 0)
(-0.405713 0.426257 0)
(-0.429422 0.406902 0)
(-0.450794 0.38192 0)
(-0.469764 0.351777 0)
(-0.486373 0.317059 0)
(-0.500759 0.27842 0)
(-0.513142 0.23653 0)
(-0.523802 0.192021 0)
(-0.533053 0.145457 0)
(-0.541222 0.0972977 0)
(-0.548616 0.0478905 0)
(-0.55551 -0.00253302 0)
(-0.562143 -0.053839 0)
(-0.56868 -0.105986 0)
(-0.575165 -0.158987 0)
(-0.581524 -0.21286 0)
(-0.587505 -0.267562 0)
(-0.59262 -0.322896 0)
(-0.596092 -0.378382 0)
(-0.596794 -0.433101 0)
(-0.593242 -0.485529 0)
(-0.583634 -0.533392 0)
(-0.566015 -0.573614 0)
(-0.538557 -0.602437 0)
(-0.499969 -0.615785 0)
(-0.449979 -0.609906 0)
(-0.389749 -0.582237 0)
(-0.322081 -0.532302 0)
(-0.251247 -0.46238 0)
(-0.182398 -0.377625 0)
(-0.120632 -0.285502 0)
(-0.0700086 -0.194625 0)
(-0.0329029 -0.113407 0)
(-0.0100178 -0.0490754 0)
(-0.000261442 -0.00740414 0)
(-0.000844221 0.0629466 0)
(-0.0103981 0.159093 0)
(-0.026963 0.230627 0)
(-0.0486386 0.283963 0)
(-0.0735795 0.325014 0)
(-0.100704 0.358324 0)
(-0.129282 0.386764 0)
(-0.158794 0.411703 0)
(-0.188834 0.433409 0)
(-0.21903 0.451501 0)
(-0.249009 0.465313 0)
(-0.278382 0.474127 0)
(-0.306756 0.477323 0)
(-0.333747 0.474448 0)
(-0.359003 0.46526 0)
(-0.382232 0.449743 0)
(-0.403224 0.428102 0)
(-0.421868 0.400745 0)
(-0.438158 0.368247 0)
(-0.452195 0.331295 0)
(-0.464171 0.290628 0)
(-0.474351 0.246983 0)
(-0.483047 0.201037 0)
(-0.490597 0.15337 0)
(-0.497343 0.10444 0)
(-0.503606 0.0545727 0)
(-0.50967 0.00396064 0)
(-0.515807 -0.0473221 0)
(-0.522221 -0.0993034 0)
(-0.529028 -0.152098 0)
(-0.53626 -0.205863 0)
(-0.543806 -0.260745 0)
(-0.551362 -0.316804 0)
(-0.558348 -0.373885 0)
(-0.56383 -0.431456 0)
(-0.566446 -0.488391 0)
(-0.564387 -0.54275 0)
(-0.55547 -0.591594 0)
(-0.537367 -0.630961 0)
(-0.508004 -0.656091 0)
(-0.466119 -0.662027 0)
(-0.411857 -0.644575 0)
(-0.347234 -0.601497 0)
(-0.276221 -0.533609 0)
(-0.204303 -0.445371 0)
(-0.137503 -0.344601 0)
(-0.0811326 -0.241261 0)
(-0.038784 -0.14569 0)
(-0.0120914 -0.0670445 0)
(-0.000390906 -0.0126005 0)
(-0.000717981 0.0680279 0)
(-0.00938941 0.171989 0)
(-0.0247445 0.249269 0)
(-0.0450829 0.306646 0)
(-0.0686632 0.350431 0)
(-0.09439 0.385537 0)
(-0.121486 0.415117 0)
(-0.149386 0.44071 0)
(-0.177648 0.462667 0)
(-0.205885 0.480633 0)
(-0.23372 0.493936 0)
(-0.260772 0.501855 0)
(-0.286665 0.503775 0)
(-0.31104 0.499272 0)
(-0.333586 0.488155 0)
(-0.354055 0.47048 0)
(-0.372293 0.446548 0)
(-0.388246 0.416873 0)
(-0.401965 0.382132 0)
(-0.4136 0.343107 0)
(-0.423382 0.300617 0)
(-0.431603 0.255451 0)
(-0.438589 0.208317 0)
(-0.444677 0.159803 0)
(-0.450202 0.11036 0)
(-0.455473 0.0602904 0)
(-0.460765 0.00975388 0)
(-0.466346 -0.0412191 0)
(-0.472439 -0.0927055 0)
(-0.479208 -0.144887 0)
(-0.486761 -0.198019 0)
(-0.495117 -0.252393 0)
(-0.504146 -0.308284 0)
(-0.513497 -0.365839 0)
(-0.522489 -0.424924 0)
(-0.530005 -0.484891 0)
(-0.534397 -0.544288 0)
(-0.533468 -0.600564 0)
(-0.524599 -0.649854 0)
(-0.505083 -0.68702 0)
(-0.472694 -0.706091 0)
(-0.426418 -0.70122 0)
(-0.367177 -0.668094 0)
(-0.298237 -0.605505 0)
(-0.225046 -0.516537 0)
(-0.154336 -0.408796 0)
(-0.09268 -0.293351 0)
(-0.0450835 -0.182609 0)
(-0.0143806 -0.0880507 0)
(-0.000548013 -0.0188606 0)
(-0.000570939 0.0725183 0)
(-0.00816438 0.183676 0)
(-0.0220053 0.266451 0)
(-0.0406493 0.327794 0)
(-0.0625012 0.374281 0)
(-0.0864692 0.411126 0)
(-0.111734 0.441742 0)
(-0.137683 0.467847 0)
(-0.163847 0.489889 0)
(-0.189823 0.507553 0)
(-0.215238 0.52018 0)
(-0.239729 0.527053 0)
(-0.262945 0.527576 0)
(-0.284567 0.521359 0)
(-0.30433 0.508273 0)
(-0.322042 0.488457 0)
(-0.337603 0.462307 0)
(-0.351014 0.43044 0)
(-0.362377 0.393632 0)
(-0.371878 0.352749 0)
(-0.379773 0.308674 0)
(-0.386362 0.262234 0)
(-0.391964 0.214157 0)
(-0.396901 0.165028 0)
(-0.401481 0.115281 0)
(-0.405982 0.0651961 0)
(-0.410653 0.014906 0)
(-0.415737 -0.0355882 0)
(-0.421454 -0.0863938 0)
(-0.427987 -0.137729 0)
(-0.435493 -0.189904 0)
(-0.444084 -0.243306 0)
(-0.453785 -0.298363 0)
(-0.464458 -0.355474 0)
(-0.475701 -0.414869 0)
(-0.486708 -0.476395 0)
(-0.496129 -0.539191 0)
(-0.501953 -0.601294 0)
(-0.501513 -0.659257 0)
(-0.491704 -0.707935 0)
(-0.469482 -0.74068 0)
(-0.43266 -0.750151 0)
(-0.380846 -0.729816 0)
(-0.316221 -0.675948 0)
(-0.243755 -0.589509 0)
(-0.170558 -0.477146 0)
(-0.104352 -0.350561 0)
(-0.0516858 -0.224214 0)
(-0.0168599 -0.11227 0)
(-0.000733931 -0.0262893 0)
(-0.000409052 0.0763151 0)
(-0.00676202 0.193913 0)
(-0.0188216 0.281859 0)
(-0.0354492 0.347063 0)
(-0.0552381 0.396216 0)
(-0.0771199 0.434752 0)
(-0.100241 0.466316 0)
(-0.123949 0.492807 0)
(-0.147744 0.514789 0)
(-0.171216 0.532005 0)
(-0.194001 0.543822 0)
(-0.215761 0.549544 0)
(-0.236184 0.548601 0)
(-0.254999 0.540651 0)
(-0.271993 0.52563 0)
(-0.287032 0.503762 0)
(-0.300071 0.475539 0)
(-0.311161 0.441673 0)
(-0.320442 0.403027 0)
(-0.328124 0.36054 0)
(-0.334471 0.31514 0)
(-0.339777 0.267682 0)
(-0.34434 0.218895 0)
(-0.348452 0.169356 0)
(-0.352381 0.119475 0)
(-0.356366 0.0695083 0)
(-0.360615 0.0195651 0)
(-0.365336 -0.0303719 0)
(-0.37073 -0.0804234 0)
(-0.376974 -0.13082 0)
(-0.384244 -0.18189 0)
(-0.392715 -0.234065 0)
(-0.40252 -0.287867 0)
(-0.413702 -0.343871 0)
(-0.426113 -0.40261 0)
(-0.439281 -0.464383 0)
(-0.452228 -0.528948 0)
(-0.463286 -0.595069 0)
(-0.469977 -0.659986 0)
(-0.469072 -0.718947 0)
(-0.456957 -0.76507 0)
(-0.430391 -0.789861 0)
(-0.387583 -0.784635 0)
(-0.329314 -0.742799 0)
(-0.259629 -0.662471 0)
(-0.185584 -0.548438 0)
(-0.115815 -0.412323 0)
(-0.0584505 -0.270407 0)
(-0.0194938 -0.139815 0)
(-0.000948847 -0.0349778 0)
(-0.000238835 0.0793392 0)
(-0.00522753 0.202502 0)
(-0.0152841 0.295216 0)
(-0.0296164 0.364143 0)
(-0.0470468 0.415923 0)
(-0.0665537 0.456115 0)
(-0.0872621 0.488559 0)
(-0.108483 0.515335 0)
(-0.12969 0.537139 0)
(-0.15047 0.553792 0)
(-0.170475 0.564707 0)
(-0.189401 0.569221 0)
(-0.20698 0.566803 0)
(-0.222997 0.557164 0)
(-0.237295 0.540309 0)
(-0.249797 0.516546 0)
(-0.260511 0.486456 0)
(-0.269528 0.450837 0)
(-0.277013 0.410625 0)
(-0.28319 0.366812 0)
(-0.288316 0.320361 0)
(-0.292666 0.272137 0)
(-0.296506 0.222863 0)
(-0.300088 0.173094 0)
(-0.303636 0.123217 0)
(-0.307346 0.0734622 0)
(-0.31138 0.023919 0)
(-0.315905 -0.0254409 0)
(-0.321092 -0.07474 0)
(-0.3271 -0.124202 0)
(-0.334101 -0.174148 0)
(-0.342295 -0.225013 0)
(-0.351884 -0.277354 0)
(-0.363037 -0.33185 0)
(-0.375817 -0.389246 0)
(-0.390053 -0.450219 0)
(-0.405156 -0.515103 0)
(-0.419893 -0.583437 0)
(-0.43216 -0.653342 0)
(-0.438879 -0.720819 0)
(-0.436174 -0.779246 0)
(-0.419985 -0.819471 0)
(-0.387181 -0.830942 0)
(-0.336954 -0.804077 0)
(-0.272011 -0.733528 0)
(-0.19887 -0.621253 0)
(-0.12673 -0.477857 0)
(-0.0652223 -0.320944 0)
(-0.0222384 -0.170721 0)
(-0.00119183 -0.0449993 0)