/*--------------------------------*- C++ -*----------------------------------*\
  =========                 |
  \\      /  F ield         | OpenFOAM: The Open Source CFD Toolbox
   \\    /   O peration     | Website:  https://openfoam.org
    \\  /    A nd           | Version:  7
     \\/     M anipulation  |
\*---------------------------------------------------------------------------*/
FoamFile
{
    version     2.0;
    format      ascii;
    class       volScalarField;
    location    "550";
    object      p;
}
// * * * * * * * * * * * * * * * * * * * * * * * * * * * * * * * * * * * * * //

dimensions      [0 2 -2 0 0 0 0];

internalField   nonuniform List<scalar> 
2500
(
3.97961e-07
7.18685e-05
-8.06277e-06
-0.000307067
-0.000781683
-0.00136947
-0.00203024
-0.00275952
-0.00358302
-0.00454144
-0.00567485
-0.00701315
-0.00857323
-0.0103548
-0.0123344
-0.0144578
-0.0166327
-0.0187274
-0.0205767
-0.0219982
-0.0228171
-0.0228935
-0.022152
-0.0206086
-0.0183892
-0.0157198
-0.0129218
-0.0104127
-0.00865467
-0.00808613
-0.00904092
-0.0116572
-0.0158234
-0.0212445
-0.0274616
-0.0339132
-0.0400702
-0.0455308
-0.0500633
-0.0535922
-0.0561671
-0.0579223
-0.0590325
-0.0596734
-0.0599971
-0.0601197
-0.0601191
-0.060038
-0.0598988
-0.0597596
-6.82341e-05
4.63652e-06
-7.92571e-05
-0.000375889
-0.00082848
-0.00137286
-0.0019739
-0.00263309
-0.00337905
-0.00425211
-0.00529112
-0.00652602
-0.00797751
-0.00965333
-0.0115418
-0.0136061
-0.0157752
-0.0179374
-0.0199397
-0.0215982
-0.0227201
-0.0231354
-0.0227299
-0.0214791
-0.0194778
-0.0169427
-0.0142109
-0.011718
-0.00994498
-0.00934947
-0.010281
-0.0128998
-0.017123
-0.0226023
-0.0288352
-0.0352738
-0.0413635
-0.0466628
-0.0509314
-0.0541416
-0.0564108
-0.0579203
-0.0588634
-0.0594129
-0.0597051
-0.0598373
-0.0598714
-0.059837
-0.0597356
-0.0596039
-1.80701e-05
5.05703e-05
-5.64743e-05
-0.00037912
-0.000831703
-0.00133845
-0.00186921
-0.00243684
-0.00308241
-0.0038535
-0.00479425
-0.00594504
-0.00734393
-0.00902541
-0.0110094
-0.0132849
-0.0157913
-0.0184067
-0.0209486
-0.0231901
-0.0248918
-0.0258393
-0.025881
-0.0249654
-0.0231845
-0.0207655
-0.0180453
-0.0154578
-0.0134958
-0.0126403
-0.0132743
-0.015597
-0.0195647
-0.0248766
-0.0310245
-0.0373871
-0.0433861
-0.0485785
-0.0526831
-0.0556335
-0.057559
-0.058705
-0.0593249
-0.0596235
-0.0597455
-0.0597807
-0.0597757
-0.0597402
-0.0596444
-0.0595001
0.000229329
0.000267282
0.000102668
-0.000278811
-0.000754746
-0.00123618
-0.00170221
-0.00218499
-0.00274562
-0.00345521
-0.00438721
-0.00562118
-0.00724205
-0.00932684
-0.0119184
-0.0149965
-0.0184577
-0.0221134
-0.0257074
-0.0289488
-0.0315528
-0.0332799
-0.033965
-0.0335442
-0.0320893
-0.0298028
-0.0269968
-0.0240925
-0.021585
-0.0199815
-0.0197203
-0.0210823
-0.0241176
-0.0286144
-0.0341229
-0.0400403
-0.0457439
-0.0507138
-0.0546538
-0.0574734
-0.059223
-0.0601138
-0.0604268
-0.060422
-0.060284
-0.0601228
-0.0599887
-0.0598828
-0.0597529
-0.059588
0.000708919
0.00067863
0.000419243
-4.30888e-05
-0.000554391
-0.00102838
-0.00145959
-0.0019081
-0.00247468
-0.0032814
-0.00446543
-0.00617473
-0.0085486
-0.0116825
-0.0155906
-0.0201816
-0.0252589
-0.0305411
-0.0356975
-0.0403869
-0.0442947
-0.0471635
-0.0488151
-0.0491648
-0.0482421
-0.0461925
-0.0432809
-0.0398924
-0.036499
-0.0336162
-0.0317371
-0.0312504
-0.0323594
-0.0350217
-0.0389382
-0.0436043
-0.0484196
-0.0528229
-0.0564132
-0.0590025
-0.0606234
-0.061432
-0.0616192
-0.0614352
-0.061099
-0.0607542
-0.0604744
-0.0602729
-0.0600966
-0.0599198
0.00146446
0.0013302
0.000950613
0.000398874
-0.000167383
-0.000674029
-0.00114585
-0.00169582
-0.00249335
-0.00374478
-0.00567587
-0.00850071
-0.0123748
-0.0173488
-0.0233423
-0.0301468
-0.0374525
-0.0448877
-0.0520588
-0.0585861
-0.0641325
-0.0684276
-0.0712838
-0.0726022
-0.0723811
-0.0707046
-0.0677704
-0.0638989
-0.059498
-0.0550431
-0.0510374
-0.0479525
-0.0461552
-0.0458329
-0.0469404
-0.049195
-0.0521343
-0.0552285
-0.0580097
-0.0601674
-0.0615804
-0.0622967
-0.06248
-0.0622931
-0.0619075
-0.0614822
-0.0611167
-0.0608485
-0.0606432
-0.0604719
0.00253434
0.00227128
0.00176232
0.0011107
0.000453625
-0.000165908
-0.000836212
-0.00175315
-0.00318638
-0.00544614
-0.00883434
-0.0135799
-0.0197793
-0.0273649
-0.0361113
-0.0456699
-0.055616
-0.0654965
-0.0748695
-0.0833356
-0.0905601
-0.0962876
-0.100346
-0.102645
-0.103178
-0.101999
-0.0992306
-0.0951085
-0.0899346
-0.084082
-0.0779822
-0.0721018
-0.0668989
-0.0627635
-0.0599484
-0.0585116
-0.0582949
-0.05896
-0.0600793
-0.0612502
-0.0621842
-0.0627413
-0.06292
-0.0628079
-0.062509
-0.0621346
-0.0617844
-0.0615158
-0.0613202
-0.0611752
0.00392483
0.00352566
0.0028865
0.00211268
0.00129717
0.000411986
-0.000728373
-0.0024333
-0.00508798
-0.00908637
-0.0147436
-0.0222151
-0.0314531
-0.0422123
-0.054093
-0.0666015
-0.0792109
-0.0914118
-0.10275
-0.112848
-0.12142
-0.128267
-0.133266
-0.136354
-0.13755
-0.136914
-0.134517
-0.130506
-0.125062
-0.118418
-0.11086
-0.102738
-0.094465
-0.0864975
-0.0792962
-0.0732622
-0.0686598
-0.0655534
-0.0637858
-0.0630247
-0.0628656
-0.0629474
-0.0630249
-0.0629914
-0.0628427
-0.0626203
-0.0623869
-0.0621963
-0.0620563
-0.0619558
0.00558097
0.00505266
0.0042783
0.00333974
0.00224109
0.000843865
-0.00116436
-0.00421966
-0.00879924
-0.0153109
-0.0239833
-0.0348009
-0.0475013
-0.0616259
-0.0765971
-0.0917981
-0.106641
-0.120616
-0.133315
-0.144439
-0.153793
-0.161268
-0.166806
-0.170388
-0.172059
-0.171916
-0.170003
-0.166399
-0.161189
-0.154473
-0.146378
-0.137074
-0.126807
-0.115923
-0.104888
-0.0942718
-0.0846941
-0.076714
-0.0706933
-0.0666831
-0.0644056
-0.063363
-0.0630216
-0.0629668
-0.0629678
-0.0629486
-0.0629043
-0.0628578
-0.062813
-0.062768
0.00735211
0.00670885
0.00578813
0.00460278
0.00302368
0.000771664
-0.00260544
-0.00764832
-0.0148559
-0.0245443
-0.0367483
-0.0512009
-0.0673853
-0.0846305
-0.102216
-0.119462
-0.135796
-0.150779
-0.164112
-0.175614
-0.185199
-0.192849
-0.19857
-0.202379
-0.204342
-0.20458
-0.203132
-0.20004
-0.195335
-0.189036
-0.181153
-0.1717
-0.160725
-0.148359
-0.134874
-0.120749
-0.106692
-0.0935944
-0.0823784
-0.0737515
-0.0679639
-0.0647159
-0.0633066
-0.0629449
-0.0630202
-0.0632019
-0.0633823
-0.0635204
-0.0635957
-0.0636104
0.00898001
0.00824079
0.00713816
0.00557297
0.00324772
-0.000270761
-0.00555768
-0.0131946
-0.0235982
-0.0368796
-0.0527919
-0.0707734
-0.0900585
-0.109811
-0.129247
-0.147716
-0.164744
-0.180029
-0.19341
-0.204829
-0.214297
-0.221857
-0.227561
-0.231447
-0.233579
-0.234084
-0.232995
-0.230345
-0.226148
-0.220398
-0.213056
-0.204054
-0.193304
-0.18074
-0.166378
-0.150415
-0.133344
-0.11603
-0.0996844
-0.0856425
-0.074976
-0.0680794
-0.0645098
-0.0632407
-0.0631678
-0.063511
-0.0639097
-0.0642455
-0.0644506
-0.0645256
0.0101111
0.00928073
0.00792903
0.0058067
0.00242879
-0.00278094
-0.0104698
-0.0211656
-0.0350898
-0.052056
-0.0714877
-0.0925359
-0.114242
-0.135699
-0.156159
-0.175098
-0.192199
-0.20732
-0.220433
-0.231575
-0.240812
-0.248221
-0.253865
-0.257785
-0.260033
-0.260721
-0.259872
-0.25752
-0.253685
-0.248364
-0.241523
-0.233085
-0.222923
-0.21087
-0.196757
-0.180493
-0.1622
-0.14239
-0.122115
-0.102951
-0.0866931
-0.0747573
-0.0675614
-0.0643432
-0.0636265
-0.0639924
-0.0645877
-0.0651156
-0.0654527
-0.0655909
0.0103166
0.00938085
0.00768895
0.00481075
7.83745e-05
-0.00719047
-0.0176377
-0.0316325
-0.0491067
-0.0695226
-0.0919785
-0.115396
-0.138723
-0.161089
-0.181885
-0.200763
-0.217585
-0.23235
-0.245124
-0.255995
-0.265049
-0.272361
-0.277989
-0.281963
-0.284316
-0.285141
-0.284447
-0.282268
-0.27863
-0.273545
-0.267005
-0.25896
-0.249312
-0.237896
-0.224485
-0.208824
-0.190719
-0.170224
-0.147887
-0.124993
-0.103556
-0.0858653
-0.0736006
-0.0669878
-0.064711
-0.0647552
-0.0654994
-0.0662114
-0.0666888
-0.0669021
0.00915211
0.00808564
0.00595188
0.0021308
-0.00420179
-0.013777
-0.027143
-0.0444192
-0.0651883
-0.0885574
-0.113352
-0.138362
-0.162554
-0.185192
-0.205861
-0.224405
-0.240835
-0.255246
-0.267752
-0.278451
-0.287423
-0.294725
-0.300396
-0.304455
-0.306916
-0.307854
-0.30727
-0.305192
-0.301646
-0.296654
-0.290226
-0.282349
-0.272975
-0.261997
-0.249229
-0.234398
-0.217169
-0.197255
-0.174647
-0.149973
-0.124837
-0.101794
-0.0836391
-0.0721237
-0.0669396
-0.065965
-0.0666956
-0.0675997
-0.0682416
-0.0685555
0.00624181
0.00501221
0.0023445
-0.00256081
-0.010641
-0.0226095
-0.03884
-0.0591397
-0.0827274
-0.108396
-0.134788
-0.160669
-0.185123
-0.20761
-0.227917
-0.246049
-0.262121
-0.276271
-0.28862
-0.299254
-0.308227
-0.315578
-0.321328
-0.325484
-0.328049
-0.329088
-0.328595
-0.326592
-0.323099
-0.318138
-0.311727
-0.303873
-0.294568
-0.28377
-0.271375
-0.257187
-0.240889
-0.222071
-0.200348
-0.175674
-0.148836
-0.121906
-0.0981102
-0.0806758
-0.0710517
-0.0679325
-0.0682488
-0.0693418
-0.0701843
-0.0706408
0.00134739
-7.59312e-05
-0.00334103
-0.00940175
-0.0192565
-0.0335373
-0.0523842
-0.0752672
-0.101067
-0.128337
-0.155637
-0.181809
-0.206115
-0.228225
-0.248099
-0.265856
-0.281659
-0.295652
-0.307936
-0.318569
-0.327585
-0.335003
-0.340835
-0.345081
-0.347737
-0.348862
-0.348453
-0.34652
-0.343081
-0.33815
-0.331741
-0.323868
-0.314541
-0.303759
-0.291491
-0.277641
-0.262004
-0.244222
-0.223791
-0.200229
-0.173498
-0.144693
-0.116584
-0.0931798
-0.0778734
-0.0711812
-0.0703237
-0.071503
-0.0725934
-0.0732489
-0.00558327
-0.00722131
-0.0111067
-0.0183144
-0.0298512
-0.0462181
-0.0672903
-0.0922113
-0.119581
-0.147802
-0.175445
-0.201496
-0.225418
-0.247067
-0.266532
-0.283991
-0.299613
-0.313523
-0.325789
-0.336446
-0.345507
-0.352981
-0.358877
-0.363192
-0.365921
-0.367116
-0.366781
-0.36492
-0.361544
-0.356663
-0.350284
-0.342416
-0.333071
-0.322261
-0.309996
-0.296258
-0.280965
-0.263896
-0.244629
-0.22255
-0.197078
-0.168284
-0.137832
-0.109492
-0.0880372
-0.0763862
-0.0732384
-0.0741858
-0.0755829
-0.076486
-0.0144018
-0.0162613
-0.0207466
-0.0290195
-0.042048
-0.0601719
-0.0829995
-0.109386
-0.137725
-0.166352
-0.193923
-0.219597
-0.243029
-0.264219
-0.283334
-0.300568
-0.316071
-0.329933
-0.342195
-0.352868
-0.361956
-0.369464
-0.3754
-0.379761
-0.382543
-0.383793
-0.383523
-0.38173
-0.378422
-0.373607
-0.367288
-0.359468
-0.35015
-0.339346
-0.327075
-0.313358
-0.298197
-0.281515
-0.26306
-0.242315
-0.218518
-0.191019
-0.160213
-0.128749
-0.101701
-0.0841904
-0.077452
-0.0775506
-0.0792762
-0.0804638
-0.0247798
-0.026852
-0.0318795
-0.0410797
-0.0553451
-0.0748445
-0.0989411
-0.126259
-0.155056
-0.183678
-0.210902
-0.236068
-0.258987
-0.279759
-0.298585
-0.315647
-0.331061
-0.344884
-0.357131
-0.367802
-0.376895
-0.384413
-0.390367
-0.394757
-0.397577
-0.398868
-0.398652
-0.396919
-0.393679
-0.388936
-0.382693
-0.374949
-0.365705
-0.354962
-0.342734
-0.329049
-0.313946
-0.297445
-0.279464
-0.259687
-0.237449
-0.211804
-0.182144
-0.149605
-0.118418
-0.0949696
-0.0834691
-0.0818275
-0.0837788
-0.0852952
-0.0362558
-0.0385169
-0.0440019
-0.0539588
-0.0691782
-0.0896662
-0.114579
-0.14237
-0.171232
-0.199566
-0.22629
-0.2509
-0.27333
-0.293736
-0.312322
-0.329241
-0.344575
-0.358351
-0.370567
-0.381217
-0.390295
-0.397808
-0.403765
-0.408172
-0.411019
-0.412341
-0.412169
-0.410488
-0.407308
-0.402634
-0.396469
-0.388815
-0.379668
-0.369029
-0.3569
-0.343303
-0.328278
-0.311888
-0.294165
-0.275
-0.253962
-0.230157
-0.202455
-0.170601
-0.137222
-0.108667
-0.0917167
-0.0873089
-0.0891811
-0.0910994
-0.0482943
-0.0507078
-0.056551
-0.0670833
-0.082977
-0.104098
-0.12944
-0.157347
-0.185996
-0.213872
-0.240029
-0.264092
-0.286077
-0.306166
-0.324545
-0.341336
-0.356588
-0.370305
-0.382476
-0.39309
-0.402143
-0.40964
-0.415593
-0.420008
-0.422875
-0.424219
-0.424083
-0.422445
-0.419316
-0.414704
-0.408613
-0.401046
-0.392004
-0.381487
-0.369494
-0.356037
-0.341145
-0.324883
-0.307339
-0.288548
-0.268331
-0.24605
-0.220497
-0.190496
-0.156871
-0.124757
-0.102392
-0.0942741
-0.0955754
-0.0979881
-0.0603457
-0.0628645
-0.0689621
-0.0798954
-0.0962102
-0.11766
-0.143127
-0.170892
-0.199157
-0.226495
-0.25208
-0.275636
-0.297227
-0.317039
-0.335236
-0.351905
-0.36707
-0.38072
-0.392837
-0.403408
-0.41243
-0.419908
-0.425853
-0.430272
-0.433155
-0.434514
-0.434407
-0.432803
-0.429717
-0.425157
-0.419129
-0.411641
-0.402698
-0.392303
-0.380458
-0.36717
-0.352459
-0.336376
-0.319016
-0.300493
-0.280822
-0.259672
-0.236062
-0.208442
-0.176133
-0.142341
-0.115349
-0.102914
-0.10307
-0.106018
-0.0718962
-0.0744694
-0.0807162
-0.0918937
-0.108414
-0.129953
-0.15532
-0.182779
-0.21057
-0.237356
-0.262406
-0.28551
-0.306759
-0.326331
-0.344363
-0.360915
-0.375992
-0.389572
-0.401632
-0.412161
-0.421154
-0.428613
-0.434549
-0.43897
-0.441864
-0.443232
-0.443149
-0.441573
-0.43852
-0.434
-0.428024
-0.420602
-0.411744
-0.401459
-0.389756
-0.376643
-0.362136
-0.346273
-0.329138
-0.310866
-0.29159
-0.271245
-0.249205
-0.223992
-0.193988
-0.16033
-0.130072
-0.113242
-0.11172
-0.115129
-0.0825278
-0.0850612
-0.0913738
-0.102657
-0.119208
-0.140654
-0.165772
-0.192833
-0.220128
-0.246394
-0.270969
-0.293685
-0.314643
-0.334007
-0.351891
-0.368335
-0.383327
-0.396841
-0.40885
-0.419341
-0.428309
-0.435754
-0.441683
-0.446105
-0.449009
-0.450383
-0.450318
-0.448762
-0.445732
-0.441242
-0.435303
-0.42793
-0.419139
-0.408945
-0.397365
-0.384414
-0.370109
-0.354483
-0.337607
-0.319609
-0.300674
-0.28092
-0.260074
-0.236996
-0.209721
-0.177638
-0.145754
-0.125015
-0.121428
-0.125081
-0.0919237
-0.0942637
-0.100575
-0.111858
-0.128301
-0.149523
-0.1743
-0.200928
-0.227749
-0.253555
-0.277728
-0.300124
-0.320841
-0.34003
-0.357785
-0.374132
-0.38905
-0.402508
-0.414476
-0.424941
-0.433894
-0.441332
-0.447259
-0.451683
-0.454595
-0.455976
-0.455921
-0.454378
-0.451362
-0.446888
-0.44097
-0.433626
-0.424879
-0.414752
-0.403268
-0.390451
-0.376327
-0.36093
-0.344322
-0.326622
-0.308021
-0.288744
-0.268795
-0.247467
-0.222909
-0.193334
-0.161428
-0.137706
-0.131854
-0.135453
-0.0998361
-0.101848
-0.108051
-0.119256
-0.135489
-0.156392
-0.180775
-0.206975
-0.233372
-0.258795
-0.282648
-0.304791
-0.325317
-0.344363
-0.362012
-0.378279
-0.393139
-0.406556
-0.4185
-0.428953
-0.437903
-0.445345
-0.451279
-0.455709
-0.45863
-0.460022
-0.459972
-0.458438
-0.455424
-0.45095
-0.445034
-0.437697
-0.428967
-0.418874
-0.40745
-0.394731
-0.38075
-0.365551
-0.349195
-0.331792
-0.313529
-0.294674
-0.275423
-0.255467
-0.233345
-0.206714
-0.176113
-0.150568
-0.142454
-0.145707
-0.106099
-0.107695
-0.113646
-0.124698
-0.140653
-0.161179
-0.185144
-0.210933
-0.236965
-0.262084
-0.285696
-0.307651
-0.328033
-0.346969
-0.364537
-0.380747
-0.39557
-0.408968
-0.420907
-0.431366
-0.440331
-0.447791
-0.453743
-0.458188
-0.461121
-0.462524
-0.462476
-0.460947
-0.457926
-0.453439
-0.447506
-0.440151
-0.431407
-0.421311
-0.409906
-0.397237
-0.383351
-0.368299
-0.352151
-0.335017
-0.317078
-0.298614
-0.279932
-0.261038
-0.240957
-0.217304
-0.188941
-0.162756
-0.152594
-0.155274
-0.110646
-0.111768
-0.11732
-0.128125
-0.143743
-0.163838
-0.18736
-0.212758
-0.238482
-0.263379
-0.286836
-0.30868
-0.328977
-0.347845
-0.365362
-0.381539
-0.396349
-0.409751
-0.421709
-0.432195
-0.441191
-0.448683
-0.454663
-0.459125
-0.462066
-0.463474
-0.463422
-0.461896
-0.45886
-0.454345
-0.448376
-0.440978
-0.432189
-0.422053
-0.410624
-0.397955
-0.384105
-0.369138
-0.353134
-0.336212
-0.318553
-0.300441
-0.282241
-0.264175
-0.245728
-0.224824
-0.199224
-0.173456
-0.161645
-0.163614
-0.113504
-0.114121
-0.119139
-0.129586
-0.144801
-0.164411
-0.187453
-0.212453
-0.237899
-0.262631
-0.286
-0.307797
-0.328063
-0.346908
-0.364412
-0.380592
-0.395422
-0.408862
-0.420872
-0.431419
-0.44048
-0.448036
-0.454074
-0.458585
-0.461564
-0.462993
-0.462918
-0.461362
-0.458276
-0.453696
-0.447649
-0.440169
-0.431298
-0.421083
-0.409582
-0.396859
-0.382982
-0.368029
-0.352095
-0.335307
-0.317857
-0.300036
-0.282239
-0.264824
-0.247652
-0.229126
-0.20647
-0.181955
-0.169036
-0.170245
-0.114782
-0.114897
-0.11926
-0.129208
-0.143935
-0.16299
-0.185497
-0.210071
-0.235244
-0.259844
-0.283176
-0.304983
-0.32527
-0.344138
-0.361666
-0.377881
-0.392763
-0.406271
-0.418363
-0.429001
-0.438154
-0.445799
-0.451917
-0.456495
-0.459524
-0.460993
-0.46092
-0.459344
-0.456207
-0.451551
-0.445408
-0.43781
-0.428801
-0.418439
-0.406791
-0.393935
-0.379954
-0.364936
-0.348984
-0.332239
-0.314907
-0.297291
-0.27981
-0.262903
-0.246709
-0.230143
-0.210356
-0.187686
-0.17427
-0.174749
-0.114657
-0.114306
-0.117917
-0.127194
-0.14131
-0.159716
-0.181602
-0.205687
-0.230556
-0.255029
-0.278358
-0.300221
-0.320581
-0.339517
-0.357112
-0.373399
-0.388368
-0.401981
-0.414191
-0.424954
-0.434234
-0.441999
-0.448225
-0.452892
-0.455989
-0.457504
-0.457437
-0.455841
-0.452646
-0.447898
-0.441634
-0.433887
-0.424707
-0.414155
-0.402306
-0.389243
-0.375059
-0.359859
-0.343769
-0.326952
-0.30963
-0.292114
-0.274845
-0.258317
-0.242861
-0.227847
-0.210691
-0.190215
-0.17692
-0.176763
-0.113356
-0.11261
-0.115408
-0.123819
-0.137156
-0.15478
-0.17592
-0.199404
-0.223891
-0.248201
-0.271527
-0.293477
-0.313954
-0.333008
-0.350717
-0.367122
-0.382221
-0.39598
-0.40835
-0.41928
-0.428727
-0.43665
-0.443017
-0.447803
-0.450989
-0.452561
-0.452509
-0.450891
-0.447633
-0.442777
-0.436367
-0.428438
-0.419041
-0.408245
-0.396128
-0.382782
-0.36831
-0.352831
-0.336484
-0.319451
-0.301984
-0.284432
-0.267257
-0.250979
-0.236062
-0.22223
-0.207376
-0.189235
-0.17662
-0.17596
-0.111143
-0.110102
-0.112071
-0.119421
-0.131762
-0.148422
-0.168646
-0.191364
-0.215331
-0.239385
-0.26267
-0.28471
-0.305339
-0.32456
-0.342437
-0.359013
-0.374294
-0.388248
-0.400826
-0.411972
-0.421631
-0.429755
-0.436303
-0.441241
-0.444544
-0.446193
-0.446172
-0.444532
-0.44121
-0.436236
-0.429656
-0.421512
-0.411855
-0.400756
-0.388301
-0.374588
-0.359729
-0.343855
-0.327124
-0.309741
-0.291986
-0.274237
-0.256999
-0.240828
-0.226268
-0.213294
-0.200373
-0.184538
-0.173044
-0.172043
-0.108297
-0.107073
-0.108251
-0.114372
-0.125469
-0.140933
-0.160017
-0.181749
-0.204993
-0.228634
-0.251783
-0.273883
-0.294678
-0.314114
-0.332219
-0.34903
-0.364555
-0.378765
-0.391609
-0.403026
-0.412951
-0.421327
-0.428102
-0.433233
-0.436687
-0.43844
-0.438472
-0.436817
-0.433433
-0.428332
-0.421564
-0.413173
-0.403212
-0.391754
-0.378889
-0.36472
-0.349369
-0.332978
-0.315724
-0.297838
-0.279632
-0.261527
-0.244071
-0.227856
-0.213475
-0.201059
-0.189689
-0.176005
-0.165907
-0.164731
-0.105084
-0.103791
-0.104266
-0.109057
-0.118656
-0.132643
-0.150311
-0.170776
-0.193025
-0.216025
-0.238879
-0.260957
-0.281909
-0.301596
-0.319995
-0.337119
-0.352965
-0.367507
-0.38069
-0.392445
-0.402701
-0.411388
-0.418444
-0.423817
-0.427464
-0.429354
-0.429463
-0.42781
-0.42437
-0.41914
-0.412168
-0.403501
-0.393194
-0.381321
-0.367972
-0.353257
-0.337304
-0.320268
-0.302346
-0.283798
-0.264973
-0.246339
-0.228495
-0.212084
-0.19774
-0.185597
-0.175383
-0.163594
-0.154962
-0.15375
-0.10174
-0.100474
-0.10038
-0.103827
-0.111717
-0.123919
-0.139839
-0.158696
-0.179613
-0.201666
-0.223992
-0.245906
-0.266962
-0.28692
-0.30568
-0.323206
-0.339474
-0.354444
-0.368056
-0.380236
-0.390901
-0.399971
-0.407373
-0.413045
-0.416935
-0.419003
-0.41922
-0.417592
-0.414108
-0.40875
-0.401563
-0.392597
-0.381905
-0.369561
-0.355656
-0.340302
-0.323636
-0.305825
-0.287089
-0.267716
-0.248102
-0.228764
-0.21036
-0.193586
-0.179131
-0.167055
-0.157584
-0.147345
-0.140019
-0.138842
-0.0984497
-0.0972799
-0.0967788
-0.098976
-0.105029
-0.115146
-0.128944
-0.145793
-0.164973
-0.185701
-0.207185
-0.228721
-0.249775
-0.269993
-0.289172
-0.307201
-0.324009
-0.33953
-0.353689
-0.3664
-0.377571
-0.387112
-0.394939
-0.400979
-0.405171
-0.407467
-0.407833
-0.406259
-0.40275
-0.397271
-0.389863
-0.380577
-0.369466
-0.356598
-0.342067
-0.325986
-0.308498
-0.289785
-0.270091
-0.249739
-0.229171
-0.208964
-0.189835
-0.172534
-0.157786
-0.145639
-0.136488
-0.12738
-0.120977
-0.119777
-0.0953438
-0.0943099
-0.0935705
-0.0947032
-0.0989115
-0.106701
-0.117986
-0.132375
-0.149352
-0.168307
-0.188561
-0.209431
-0.230312
-0.250735
-0.270371
-0.289003
-0.306486
-0.322706
-0.337556
-0.350934
-0.362734
-0.372855
-0.381202
-0.387693
-0.392258
-0.394841
-0.395404
-0.393923
-0.390414
-0.384827
-0.3772
-0.36758
-0.356018
-0.342582
-0.32736
-0.31047
-0.292061
-0.272331
-0.251547
-0.230075
-0.208407
-0.18718
-0.167174
-0.149186
-0.13397
-0.12158
-0.112359
-0.103883
-0.0978244
-0.0963172
-0.0924996
-0.0916199
-0.0907952
-0.0911086
-0.0935908
-0.0989107
-0.107318
-0.118764
-0.133018
-0.149697
-0.168274
-0.188121
-0.208592
-0.229108
-0.249202
-0.268524
-0.286822
-0.303905
-0.319619
-0.333828
-0.346407
-0.35724
-0.366224
-0.373266
-0.378289
-0.381232
-0.38205
-0.380711
-0.37723
-0.371558
-0.363719
-0.353759
-0.341727
-0.327685
-0.311722
-0.293956
-0.274545
-0.253703
-0.231727
-0.209021
-0.186132
-0.163762
-0.142745
-0.12392
-0.108056
-0.0951672
-0.0855509
-0.0770787
-0.0706107
-0.068121
-0.0899493
-0.0892323
-0.0884447
-0.0881967
-0.0891678
-0.0919995
-0.0972371
-0.105266
-0.116254
-0.13012
-0.146531
-0.164949
-0.184716
-0.205158
-0.225663
-0.24573
-0.264969
-0.283085
-0.299848
-0.315074
-0.328606
-0.34031
-0.350068
-0.35778
-0.363364
-0.366751
-0.367893
-0.366755
-0.363342
-0.357616
-0.349585
-0.33929
-0.32678
-0.312115
-0.295381
-0.276699
-0.256236
-0.234225
-0.210991
-0.186981
-0.162795
-0.139189
-0.117048
-0.0972358
-0.0805144
-0.0668192
-0.0564924
-0.0472351
-0.0395379
-0.0347878
-0.0876845
-0.0871429
-0.0864827
-0.0858965
-0.0856039
-0.0860342
-0.0879239
-0.0921315
-0.0993361
-0.109854
-0.123606
-0.140175
-0.158914
-0.179067
-0.199885
-0.220703
-0.240976
-0.260274
-0.278268
-0.294703
-0.309376
-0.322124
-0.332813
-0.341332
-0.347592
-0.351522
-0.353071
-0.352203
-0.348911
-0.343175
-0.334985
-0.32438
-0.311407
-0.296127
-0.278626
-0.259029
-0.237513
-0.214329
-0.189831
-0.164504
-0.138992
-0.114095
-0.0907251
-0.069753
-0.0519135
-0.0370632
-0.025651
-0.01468
-0.00524335
0.00374223
-0.0856483
-0.0853123
-0.0848492
-0.084076
-0.0827199
-0.0808848
-0.0793758
-0.0794947
-0.0825013
-0.0892069
-0.0998534
-0.114182
-0.131572
-0.151204
-0.172196
-0.193722
-0.215068
-0.235654
-0.255029
-0.272845
-0.288839
-0.302805
-0.314585
-0.324056
-0.331119
-0.335703
-0.337754
-0.337234
-0.334133
-0.328446
-0.320151
-0.309285
-0.295897
-0.28005
-0.261833
-0.241377
-0.218871
-0.194583
-0.168891
-0.142306
-0.115497
-0.0892797
-0.0645616
-0.0421864
-0.0228428
-0.0063454
0.00674009
0.0204892
0.0314318
0.0472813
-0.0837201
-0.0836446
-0.0834365
-0.0825316
-0.0801979
-0.0762116
-0.0713662
-0.0673237
-0.065918
-0.0685105
-0.0757282
-0.0875096
-0.103284
-0.122177
-0.143188
-0.165333
-0.187733
-0.20965
-0.230497
-0.24982
-0.267277
-0.28261
-0.295628
-0.306186
-0.314178
-0.319528
-0.322181
-0.322103
-0.319277
-0.313715
-0.305395
-0.29435
-0.280635
-0.264319
-0.245497
-0.224309
-0.200956
-0.175718
-0.148985
-0.121277
-0.0932551
-0.0657044
-0.039477
-0.0153371
0.00611542
0.0251231
0.0410897
0.0590729
0.0714313
0.0979154
-0.0817059
-0.0819572
-0.082037
-0.0809451
-0.0775777
-0.071492
-0.0634632
-0.0554172
-0.0496739
-0.0481231
-0.0518035
-0.0608882
-0.0748821
-0.0928729
-0.113757
-0.136407
-0.159788
-0.183008
-0.205342
-0.226224
-0.245223
-0.262018
-0.276377
-0.288129
-0.297155
-0.303373
-0.306727
-0.307186
-0.304735
-0.299388
-0.291148
-0.280042
-0.266133
-0.2495
-0.23025
-0.208532
-0.184556
-0.158608
-0.13107
-0.102437
-0.0733176
-0.0444112
-0.0164486
0.0099538
0.0343618
0.0572049
0.0780912
0.102864
0.119885
0.162959
-0.0793927
-0.079999
-0.0803636
-0.0789204
-0.07432
-0.0661125
-0.0551417
-0.0434946
-0.033828
-0.028455
-0.0287917
-0.035258
-0.0474607
-0.0644774
-0.0851243
-0.108157
-0.1324
-0.156825
-0.180578
-0.20298
-0.223513
-0.241787
-0.257522
-0.27052
-0.280641
-0.287797
-0.291932
-0.293017
-0.291042
-0.286021
-0.277982
-0.26696
-0.253031
-0.236286
-0.216844
-0.194862
-0.170551
-0.144188
-0.116122
-0.0867834
-0.0566747
-0.0263406
0.00368573
0.0330184
0.0614766
0.0898097
0.118023
0.153209
0.183006
0.247726
-0.0768855
-0.0777321
-0.0782261
-0.076177
-0.0701262
-0.0597024
-0.0460453
-0.0314052
-0.0185476
-0.0100295
-0.00755235
-0.0117501
-0.0223428
-0.03843
-0.0587859
-0.0820824
-0.107038
-0.132509
-0.157529
-0.181322
-0.203284
-0.222962
-0.240026
-0.254246
-0.265464
-0.27358
-0.278537
-0.280311
-0.278901
-0.274325
-0.266619
-0.255834
-0.242064
-0.225426
-0.206046
-0.184079
-0.159726
-0.133232
-0.104888
-0.0750212
-0.0439732
-0.0120588
0.0204952
0.0536829
0.0877493
0.123886
0.162406
0.21207
0.259591
0.33819
-0.0754693
-0.0761641
-0.076287
-0.0730581
-0.0651772
-0.0525302
-0.0364635
-0.0194861
-0.0043719
0.00638135
0.01088
0.00834635
-0.00101683
-0.0163474
-0.0364218
-0.0598743
-0.0853577
-0.111648
-0.137697
-0.162648
-0.185828
-0.206727
-0.224971
-0.240298
-0.252531
-0.26156
-0.267324
-0.269803
-0.269004
-0.264958
-0.257721
-0.247336
-0.233887
-0.217518
-0.198377
-0.176621
-0.152423
-0.125982
-0.0975073
-0.067198
-0.035193
-0.00149784
0.0341201
0.0723286
0.114296
0.162353
0.217569
0.288706
0.349097
0.424095
-0.0796467
-0.0789428
-0.0773274
-0.0717132
-0.0611663
-0.0459345
-0.0276233
-0.00883318
0.00765929
0.0196457
0.0253648
0.0238198
0.0152004
0.000346042
-0.0195439
-0.0431018
-0.0689527
-0.0958286
-0.122629
-0.148445
-0.172552
-0.194397
-0.213571
-0.229786
-0.242849
-0.252639
-0.259094
-0.262192
-0.261947
-0.258398
-0.251608
-0.241665
-0.228648
-0.212634
-0.19378
-0.172262
-0.148242
-0.121871
-0.093279
-0.0625268
-0.029528
0.00608367
0.0451585
0.0894123
0.141765
0.207442
0.291241
0.403185
0.495484
0.603096
-0.103076
-0.0952491
-0.0867961
-0.0760043
-0.0616428
-0.0433203
-0.0226819
-0.00230426
0.0153681
0.0281271
0.0342875
0.0331658
0.024955
0.0104464
-0.00920631
-0.0326697
-0.0585844
-0.0856779
-0.112831
-0.139106
-0.163746
-0.186168
-0.205937
-0.222743
-0.236375
-0.246704
-0.253659
-0.257219
-0.257397
-0.254233
-0.247794
-0.238165
-0.225441
-0.209733
-0.191163
-0.16987
-0.145999
-0.119675
-0.0909585
-0.0597854
-0.0258521
0.0115868
0.054048
0.104454
0.167935
0.253989
0.375296
0.555381
0.767396
1.1076
-0.189904
-0.112142
-0.0805483
-0.071317
-0.0580421
-0.038679
-0.0169999
0.00398314
0.0217643
0.0341721
0.0398052
0.0381834
0.0295804
0.0148163
-0.00496228
-0.0284584
-0.0543583
-0.0814286
-0.108577
-0.134879
-0.159585
-0.182108
-0.202008
-0.218969
-0.232772
-0.243283
-0.250426
-0.254176
-0.254544
-0.251569
-0.245318
-0.235872
-0.223331
-0.207803
-0.189406
-0.168271
-0.144531
-0.118278
-0.0895176
-0.0580887
-0.0235228
0.0152057
0.0600909
0.114877
0.186127
0.286187
0.434954
0.68006
1.07912
1.82833
)
;

boundaryField
{
    movingWall
    {
        type            zeroGradient;
    }
    fixedWalls
    {
        type            zeroGradient;
    }
    frontAndBack
    {
        type            empty;
    }
}


// ************************************************************************* //
