/*--------------------------------*- C++ -*----------------------------------*\
  =========                 |
  \\      /  F ield         | OpenFOAM: The Open Source CFD Toolbox
   \\    /   O peration     | Website:  https://openfoam.org
    \\  /    A nd           | Version:  7
     \\/     M anipulation  |
\*---------------------------------------------------------------------------*/
FoamFile
{
    version     2.0;
    format      ascii;
    class       surfaceScalarField;
    location    "550";
    object      phi;
}
// * * * * * * * * * * * * * * * * * * * * * * * * * * * * * * * * * * * * * //

dimensions      [0 3 -1 0 0 0 0];

internalField   nonuniform List<scalar> 
4900
(
1.69787e-06
-1.70757e-06
6.22186e-06
-4.52419e-06
1.17169e-05
-5.49516e-06
1.65043e-05
-4.78754e-06
1.97517e-05
-3.24755e-06
2.13902e-05
-1.63861e-06
2.17678e-05
-3.77791e-07
2.12611e-05
5.0653e-07
2.0013e-05
1.24799e-06
1.78589e-05
2.15395e-06
1.44052e-05
3.45353e-06
9.16474e-06
5.24036e-06
1.64595e-06
7.51867e-06
-8.60353e-06
1.02494e-05
-2.19335e-05
1.33298e-05
-3.85068e-05
1.65733e-05
-5.8228e-05
1.97211e-05
-8.06614e-05
2.24333e-05
-0.000104968
2.43069e-05
-0.000129892
2.49232e-05
-0.000153803
2.39115e-05
-0.000174816
2.10127e-05
-0.000190947
1.61312e-05
-0.000200321
9.37372e-06
-0.000201415
1.09405e-06
-0.000193287
-8.12833e-06
-0.00017569
-1.75969e-05
-0.000149144
-2.6546e-05
-0.000114941
-3.42028e-05
-7.51062e-05
-3.98352e-05
-3.22896e-05
-4.28166e-05
1.03933e-05
-4.2683e-05
4.96845e-05
-3.92912e-05
8.27293e-05
-3.30449e-05
0.000107349
-2.462e-05
0.000122276
-1.49271e-05
0.000127392
-5.11618e-06
0.000123776
3.61669e-06
0.000113422
1.03538e-05
9.87222e-05
1.46996e-05
8.20209e-05
1.67012e-05
6.52571e-05
1.67637e-05
4.97785e-05
1.54786e-05
3.63207e-05
1.34577e-05
2.51126e-05
1.1208e-05
1.60473e-05
9.06529e-06
8.89847e-06
7.14876e-06
3.59717e-06
5.30124e-06
5.06184e-07
3.09093e-06
5.06171e-07
4.47773e-06
-6.18554e-06
1.3853e-05
-1.38999e-05
2.43145e-05
-1.5957e-05
3.29005e-05
-1.33739e-05
3.79996e-05
-8.34695e-06
3.92213e-05
-2.86069e-06
3.68474e-05
1.9957e-06
3.11842e-05
6.16936e-06
2.21226e-05
1.03092e-05
9.03351e-06
1.52427e-05
-9.08124e-06
2.15679e-05
-3.33231e-05
2.94819e-05
-6.4592e-05
3.87873e-05
-0.000103328
4.89846e-05
-0.000149299
5.93013e-05
-0.000201446
6.87193e-05
-0.000257818
7.60933e-05
-0.000315704
8.03196e-05
-0.000371906
8.05083e-05
-0.000423086
7.6103e-05
-0.000466106
6.69313e-05
-0.000498287
5.31934e-05
-0.000517574
3.54189e-05
-0.000522627
1.44263e-05
-0.0005129
-8.63336e-06
-0.000488485
-3.25428e-05
-0.00045002
-5.60625e-05
-0.000398705
-7.78609e-05
-0.000336368
-9.65397e-05
-0.000265482
-0.000110721
-0.000189136
-0.000119162
-0.000110905
-0.000120914
-3.46691e-05
-0.000115527
3.54972e-05
-0.000103211
9.58988e-05
-8.50217e-05
0.000143718
-6.27465e-05
0.00017703
-3.84279e-05
0.000195041
-1.43949e-05
0.000198342
7.05281e-06
0.000189027
2.4015e-05
0.000170241
3.54868e-05
0.000145576
4.14285e-05
0.000118442
4.26124e-05
9.16067e-05
4.02929e-05
6.69391e-05
3.58755e-05
4.54285e-05
3.05757e-05
2.74669e-05
2.51102e-05
1.33397e-05
1.94283e-05
3.75717e-06
1.26734e-05
4.26333e-06
5.98726e-06
-1.2173e-05
1.73375e-05
-2.52505e-05
2.87995e-05
-2.74194e-05
3.68151e-05
-2.13898e-05
3.95229e-05
-1.10551e-05
3.63342e-05
3.27626e-07
2.71856e-05
1.1144e-05
1.18684e-05
2.14861e-05
-1.03835e-05
3.25609e-05
-4.08486e-05
4.57075e-05
-8.0887e-05
6.1606e-05
-0.000131421
8.0016e-05
-0.000192515
9.98811e-05
-0.000263062
0.000119531
-0.000340712
0.000136951
-0.000422104
0.000150112
-0.000503321
0.00015731
-0.000580408
0.000157407
-0.00064982
0.00014992
-0.000708695
0.000134978
-0.00075495
0.000113186
-0.000787232
8.54754e-05
-0.000804779
5.29658e-05
-0.000807241
1.68882e-05
-0.000794485
-2.13899e-05
-0.000766526
-6.05016e-05
-0.000723675
-9.89136e-05
-0.000666664
-0.000134872
-0.000596729
-0.000166475
-0.000515714
-0.000191736
-0.000426139
-0.000208738
-0.000331198
-0.000215856
-0.000234675
-0.00021205
-0.000140707
-0.00019718
-5.35217e-05
-0.000172207
2.29131e-05
-0.000139181
8.56213e-05
-0.000101136
0.000132809
-6.15832e-05
0.00016351
-2.36476e-05
0.000177863
9.6617e-06
0.000177403
3.59461e-05
0.000164932
5.39003e-05
0.000143994
6.35496e-05
0.000118273
6.60138e-05
9.10301e-05
6.31185e-05
6.47407e-05
5.68649e-05
4.1066e-05
4.87848e-05
2.12093e-05
3.92848e-05
6.60797e-06
2.72746e-05
1.08713e-05
6.50769e-06
-1.86808e-05
1.75938e-05
-3.63369e-05
2.69424e-05
-3.67684e-05
3.07397e-05
-2.51875e-05
2.718e-05
-7.49569e-06
1.55696e-05
1.19377e-05
-4.62807e-06
3.13414e-05
-3.44287e-05
5.12865e-05
-7.53565e-05
7.34884e-05
-0.000128888
9.92388e-05
-0.000195752
0.00012847
-0.000275364
0.000159628
-0.000365593
0.00019011
-0.000462948
0.000216885
-0.00056311
0.000237113
-0.000661631
0.000248633
-0.000754534
0.000250213
-0.000838683
0.000241555
-0.00091187
0.000223107
-0.000972696
0.000195803
-0.00102034
0.000160826
-0.0010543
0.00011944
-0.00107424
7.29092e-05
-0.00107985
2.24911e-05
-0.00107072
-3.05158e-05
-0.00104656
-8.46631e-05
-0.00100721
-0.000138264
-0.000952736
-0.000189345
-0.000883555
-0.000235656
-0.000800592
-0.000274699
-0.000705475
-0.000303855
-0.000600691
-0.00032064
-0.000489656
-0.000323085
-0.00037664
-0.000310195
-0.000266478
-0.000282369
-0.000164022
-0.000241637
-7.35939e-05
-0.000191565
1.5302e-06
-0.000136707
5.9772e-05
-8.18895e-05
0.000100828
-3.13942e-05
0.000124953
1.1821e-05
0.000133435
4.54178e-05
0.000128778
6.82063e-05
0.000114277
8.05149e-05
9.35139e-05
8.38816e-05
6.98512e-05
8.05275e-05
4.61067e-05
7.25292e-05
2.46323e-05
6.07591e-05
7.92722e-06
4.39795e-05
1.87985e-05
6.20313e-06
-2.48841e-05
1.48872e-05
-4.50214e-05
1.91871e-05
-4.10686e-05
1.54429e-05
-2.14436e-05
2.10821e-06
5.83874e-06
-2.17022e-05
3.57479e-05
-5.71669e-05
6.68058e-05
-0.000106013
0.000100132
-0.000169864
0.000137339
-0.000249278
0.000178653
-0.000343066
0.000222258
-0.000448205
0.000264767
-0.000560308
0.000302213
-0.000674429
0.000331006
-0.00078589
0.000348575
-0.000890875
0.000353618
-0.000986658
0.000345996
-0.00107153
0.000326424
-0.00114453
0.00029611
-0.00120519
0.000256458
-0.00125325
0.000208893
-0.00128858
0.000154769
-0.00131104
9.53658e-05
-0.00132046
3.19112e-05
-0.00131657
-3.44037e-05
-0.00129901
-0.000102221
-0.0012673
-0.000169976
-0.00122087
-0.000235778
-0.00115918
-0.000297346
-0.00108194
-0.000351937
-0.00098939
-0.000396405
-0.000882629
-0.000427401
-0.000763946
-0.000441768
-0.000637035
-0.000437107
-0.000506956
-0.000412448
-0.000379737
-0.000368856
-0.000261581
-0.000309721
-0.000157791
-0.000240497
-7.1899e-05
-0.000167782
-5.34965e-06
-9.79437e-05
4.23962e-05
-3.5925e-05
7.2585e-05
1.52288e-05
8.68199e-05
5.39713e-05
8.7627e-05
7.97076e-05
7.82139e-05
9.32946e-05
6.20919e-05
9.66493e-05
4.27221e-05
9.18989e-05
2.33994e-05
8.00817e-05
7.60038e-06
5.97784e-05
2.63989e-05
4.89419e-06
-2.97785e-05
8.86555e-06
-4.89931e-05
5.25947e-06
-3.74628e-05
-8.97251e-06
-7.21189e-06
-3.51751e-05
3.20411e-05
-7.45123e-05
7.50848e-05
-0.000128703
0.000120997
-0.000199496
0.000170924
-0.000287442
0.000225285
-0.000391013
0.000282224
-0.000506555
0.0003378
-0.000629001
0.000387213
-0.0007529
0.000426112
-0.000873345
0.000451451
-0.000986536
0.000461766
-0.00108992
0.000457001
-0.00118201
0.00043809
-0.00126212
0.00040653
-0.00133005
0.000364037
-0.00138592
0.000312336
-0.00143008
0.000253046
-0.00146293
0.00018762
-0.0014849
0.000117333
-0.0014963
4.33147e-05
-0.00149724
-3.34645e-05
-0.00148748
-0.000111982
-0.00146639
-0.000191059
-0.00143295
-0.000269227
-0.00138574
-0.000344552
-0.00132321
-0.000414468
-0.0012439
-0.000475711
-0.00114692
-0.000524381
-0.00103247
-0.000556223
-0.000902399
-0.000567173
-0.00076068
-0.000554168
-0.00061343
-0.000516106
-0.000468434
-0.000454718
-0.000333947
-0.000374983
-0.00021704
-0.000284689
-0.000122027
-0.000192957
-4.98717e-05
-0.000108081
1.05826e-06
-3.57012e-05
3.33648e-05
2.16646e-05
4.96003e-05
6.3472e-05
5.27231e-05
9.01717e-05
4.61464e-05
0.000103226
3.35727e-05
0.000104472
1.88626e-05
9.47916e-05
6.11045e-06
7.25304e-05
3.25093e-05
2.26765e-06
-3.20462e-05
-9.36551e-07
-4.57891e-05
-1.50467e-05
-2.33529e-05
-4.22533e-05
1.99945e-05
-8.374e-05
7.35276e-05
-0.000140942
0.000132286
-0.000215557
0.000195612
-0.00030826
0.000263627
-0.000417506
0.000334532
-0.000539345
0.000404062
-0.000668223
0.000466677
-0.000798205
0.000517194
-0.000924021
0.000551928
-0.00104166
0.000569087
-0.00114846
0.000568572
-0.00124297
0.000551505
-0.0013246
0.000519719
-0.00139343
0.000475367
-0.00145005
0.000420651
-0.00149536
0.000357645
-0.00153048
0.000288168
-0.00155658
0.000213722
-0.00157472
0.000135475
-0.00158572
5.43126e-05
-0.00159006
-2.91243e-05
-0.00158775
-0.000114292
-0.00157826
-0.000200549
-0.00156041
-0.000287074
-0.00153238
-0.000372588
-0.00149171
-0.000455134
-0.00143555
-0.000531876
-0.00136096
-0.000598972
-0.00126555
-0.000651631
-0.00114828
-0.000684444
-0.00101033
-0.000692114
-0.00085588
-0.000670559
-0.000692323
-0.000618275
-0.000529703
-0.000537604
-0.000379035
-0.000435356
-0.000249806
-0.000322186
-0.000147501
-0.000210386
-7.25905e-05
-0.000110612
-2.17758e-05
-2.91501e-05
9.26496e-06
3.24311e-05
2.43912e-05
7.50453e-05
2.73867e-05
0.00010023
2.22081e-05
0.000109651
1.3035e-05
0.000103965
4.20927e-06
8.13561e-05
3.67186e-05
-1.92705e-06
-3.01193e-05
-1.46826e-05
-3.30339e-05
-4.13751e-05
3.33946e-06
-8.3294e-05
6.19132e-05
-0.000141452
0.000131685
-0.000217245
0.00020808
-0.000311452
0.000289819
-0.000422783
0.000374958
-0.000547339
0.000459088
-0.00067931
0.000536033
-0.000812306
0.000599674
-0.000940568
0.000645456
-0.00105965
0.000671013
-0.00116661
0.00067604
-0.00125981
0.000661775
-0.00133873
0.000630425
-0.0014037
0.000584692
-0.00145574
0.000527404
-0.00149634
0.000461249
-0.00152726
0.000388571
-0.00155035
0.000311251
-0.00156729
0.000230665
-0.00157954
0.000147725
-0.0015882
6.29709e-05
-0.00159399
-2.33311e-05
-0.00159718
-0.000111098
-0.00159752
-0.000200214
-0.00159409
-0.000290506
-0.00158522
-0.000381457
-0.00156837
-0.000471986
-0.00154008
-0.000560164
-0.00149613
-0.000642918
-0.00143196
-0.000715804
-0.00134341
-0.000772991
-0.00122789
-0.000807639
-0.00108564
-0.000812805
-0.000920962
-0.000782954
-0.000742703
-0.000715863
-0.000563606
-0.000614454
-0.000398041
-0.000487751
-0.000258408
-0.000350019
-0.000151485
-0.000217534
-7.69291e-05
-0.000103706
-2.92809e-05
-1.52172e-05
-2.11346e-06
4.78778e-05
9.94491e-06
8.81718e-05
1.17116e-05
0.000107884
7.78182e-06
0.000107894
2.59794e-06
8.65398e-05
3.93165e-05
-7.75691e-06
-2.23625e-05
-3.1932e-05
-8.85895e-06
-7.2553e-05
4.39603e-05
-0.000129876
0.000119236
-0.000204723
0.000206532
-0.000297819
0.000301176
-0.000408266
0.000400265
-0.000532547
0.00049924
-0.000664883
0.000591424
-0.000798541
0.00066969
-0.000927209
0.000728341
-0.00104587
0.000764122
-0.00115113
0.000776265
-0.00124108
0.000765998
-0.0013152
0.000735888
-0.00137403
0.000689255
-0.00141901
0.000629672
-0.00145217
0.000560568
-0.00147584
0.000484921
-0.00149236
0.000405083
-0.00150383
0.000322724
-0.00151206
0.000238891
-0.00151846
0.000154125
-0.00152409
6.86003e-05
-0.00152967
-1.77442e-05
-0.00153563
-0.00010514
-0.00154201
-0.00019383
-0.00154844
-0.000284078
-0.00155391
-0.000375984
-0.00155658
-0.000469323
-0.00155347
-0.000563272
-0.00154035
-0.000656039
-0.00151174
-0.000744415
-0.00146136
-0.00082337
-0.0013831
-0.000885901
-0.0012725
-0.0009234
-0.00112865
-0.000926802
-0.000955898
-0.00088862
-0.000764733
-0.000805618
-0.000571043
-0.000681442
-0.000393042
-0.00052802
-0.000246268
-0.000364308
-0.000138471
-0.000211504
-6.77608e-05
-8.5928e-05
-2.59374e-05
6.05423e-06
-4.33963e-06
6.65739e-05
3.85309e-06
9.96913e-05
4.27385e-06
0.000107473
1.7123e-06
8.91013e-05
4.10288e-05
-1.49486e-05
-7.41391e-06
-5.17012e-05
2.78935e-05
-0.000106544
9.88035e-05
-0.000178802
0.000191494
-0.000268822
0.000296551
-0.000376056
0.00040841
-0.000497631
0.00052184
-0.000628143
0.000629751
-0.000760735
0.000724016
-0.000888588
0.000797544
-0.00100605
0.000845799
-0.00110912
0.000867197
-0.00119557
0.000862713
-0.00126475
0.000835176
-0.0013174
0.000788537
-0.00135534
0.000727202
-0.00138113
0.000655457
-0.00139758
0.000577019
-0.00140743
0.000494774
-0.00141306
0.000410715
-0.00141637
0.000326033
-0.00141878
0.000241296
-0.0014213
0.000156643
-0.00142464
7.19454e-05
-0.00142932
-1.30623e-05
-0.00143573
-9.87312e-05
-0.00144414
-0.000185425
-0.00145467
-0.000273545
-0.00146716
-0.000363491
-0.00148089
-0.0004556
-0.00149418
-0.000549974
-0.00150405
-0.000646175
-0.00150574
-0.000742719
-0.0014927
-0.000836416
-0.0014569
-0.000921696
-0.00139009
-0.000990217
-0.00128569
-0.0010312
-0.00114143
-0.00103288
-0.00096176
-0.000985289
-0.00075918
-0.000884021
-0.000553256
-0.000733944
-0.000366451
-0.000551113
-0.000217248
-0.000360707
-0.00011339
-0.000189786
-5.02249e-05
-5.71107e-05
-1.63627e-05
3.27116e-05
-1.30409e-06
8.46325e-05
2.7418e-06
0.000103427
1.64647e-06
9.01965e-05
4.26752e-05
-2.30026e-05
1.55886e-05
-7.24787e-05
7.73696e-05
-0.000140755
0.00016708
-0.000226316
0.000277055
-0.000328632
0.000398868
-0.000445571
0.000525349
-0.000572459
0.000648728
-0.000702658
0.00075995
-0.000829012
0.00085037
-0.000945218
0.00091375
-0.00104662
0.000947204
-0.00113049
0.000951064
-0.00119596
0.000928186
-0.00124386
0.000883076
-0.00127634
0.000821019
-0.00129641
0.000747271
-0.00130737
0.000666419
-0.00131234
0.000581983
-0.00131388
0.000496321
-0.00131393
0.000410759
-0.00131375
0.000325853
-0.00131412
0.000241669
-0.00131549
0.000158012
-0.00131812
7.45736e-05
-0.00132221
-8.97478e-06
-0.001328
-9.29425e-05
-0.0013358
-0.000177625
-0.00134602
-0.000263325
-0.00135908
-0.000350431
-0.00137525
-0.000439429
-0.00139433
-0.000530891
-0.00141518
-0.000625322
-0.00143509
-0.000722815
-0.00144911
-0.000822391
-0.00144975
-0.000921055
-0.00142725
-0.00101272
-0.001371
-0.00108745
-0.00127211
-0.00113177
-0.0011269
-0.0011305
-0.000940214
-0.0010707
-0.000727226
-0.000946932
-0.000511923
-0.000766417
-0.000321273
-0.000551357
-0.000175878
-0.00033518
-8.16506e-05
-0.000151338
-2.96418e-05
-1.92972e-05
-5.40893e-06
6.03995e-05
2.48582e-06
9.55324e-05
2.17918e-06
9.0503e-05
4.48544e-05
-3.1176e-05
4.67646e-05
-9.24517e-05
0.000138645
-0.00017245
0.000247078
-0.000268695
0.000373299
-0.000379523
0.000509696
-0.000501243
0.000647069
-0.000627858
0.000775344
-0.000752193
0.000884285
-0.000867408
0.000965584
-0.000968124
0.00101447
-0.00105096
0.00103004
-0.00111467
0.00101477
-0.00115998
0.000973492
-0.00118922
0.000912319
-0.00120579
0.000837586
-0.00121343
0.000754913
-0.00121563
0.000668618
-0.00121518
0.000581531
-0.00121402
0.000495156
-0.00121328
0.000410021
-0.0012135
0.000326072
-0.00121482
0.000242989
-0.00121719
0.000160387
-0.00122053
7.79141e-05
-0.0012248
-4.70813e-06
-0.00123007
-8.76737e-05
-0.00123656
-0.000171133
-0.00124468
-0.00025521
-0.001255
-0.000340106
-0.00126827
-0.000426159
-0.00128524
-0.000513924
-0.00130635
-0.00060421
-0.00133118
-0.000697988
-0.00135756
-0.000796013
-0.00138061
-0.000898004
-0.00139203
-0.0010013
-0.00138025
-0.00109923
-0.00133213
-0.00117989
-0.00123634
-0.0012263
-0.00108798
-0.00121906
-0.000893025
-0.00114189
-0.000670414
-0.000989029
-0.000449515
-0.000772256
-0.000261695
-0.000523
-0.000127817
-0.000285216
-4.91788e-05
-9.79358e-05
-1.12925e-05
2.25131e-05
2.1496e-06
8.20903e-05
2.87795e-06
8.97745e-05
4.77323e-05
-3.85939e-05
8.53584e-05
-0.000109892
0.000209944
-0.000199144
0.00033633
-0.000302803
0.000476958
-0.000418005
0.000624898
-0.000539788
0.000768853
-0.00066141
0.000896965
-0.000775755
0.00099863
-0.000876749
0.00106658
-0.000960234
0.00109795
-0.00102433
0.00109414
-0.00106941
0.00105985
-0.00109777
0.00100186
-0.00111304
0.000927584
-0.00111933
0.000843877
-0.0011205
0.000756085
-0.00111959
0.000667712
-0.00111862
0.000580558
-0.00111863
0.00049517
-0.00111998
0.000411368
-0.00112258
0.000328671
-0.00112616
0.000246572
-0.00113043
0.000164657
-0.00113515
8.26384e-05
-0.0011402
3.38126e-07
-0.00114555
-8.23268e-05
-0.00115129
-0.000165385
-0.00115768
-0.000248825
-0.00116513
-0.000332659
-0.0011743
-0.000416985
-0.00118615
-0.000502079
-0.00120182
-0.000588534
-0.00122243
-0.000677385
-0.00124834
-0.0007701
-0.00127813
-0.000868211
-0.00130714
-0.000972287
-0.00132629
-0.00108008
-0.00132206
-0.00118412
-0.00127855
-0.00126981
-0.001182
-0.00131562
-0.00102692
-0.00129696
-0.000821738
-0.00119421
-0.000590807
-0.00100319
-0.000369879
-0.000743929
-0.000193715
-0.000461379
-8.00074e-05
-0.000211644
-2.1966e-05
-3.55283e-05
2.36277e-07
5.98878e-05
3.2686e-06
8.67421e-05
5.10009e-05
-4.44894e-05
0.000129848
-0.000123371
0.000288826
-0.000218924
0.000431883
-0.000326464
0.000584498
-0.000442049
0.000740482
-0.000559863
0.000886667
-0.000672959
0.00101006
-0.000774748
0.00110042
-0.000860231
0.00115206
-0.000926672
0.00116439
-0.000973787
0.00114125
-0.00100353
0.0010896
-0.00101951
0.00101783
-0.00102608
0.00093416
-0.00102747
0.000845262
-0.00102701
0.000755624
-0.00102687
0.000667572
-0.0010281
0.000581791
-0.00103094
0.000498007
-0.00103514
0.000415573
-0.00104031
0.000333836
-0.00104603
0.000252295
-0.00105201
0.000170631
-0.00105803
8.86638e-05
-0.001064
6.31203e-06
-0.00106989
-7.64374e-05
-0.00107572
-0.000159556
-0.00108157
-0.000242982
-0.00108759
-0.000326636
-0.00109413
-0.000410445
-0.0011018
-0.000494406
-0.00111162
-0.000578713
-0.00112505
-0.000663958
-0.00114378
-0.000751373
-0.00116903
-0.000842953
-0.00120021
-0.000941113
-0.00123288
-0.0010474
-0.00125706
-0.00115994
-0.00125693
-0.00126994
-0.0012136
-0.00135894
-0.0011112
-0.00139937
-0.000944901
-0.00136051
-0.000727693
-0.00122039
-0.000491516
-0.000980106
-0.000278973
-0.000673922
-0.000125345
-0.000365272
-3.96904e-05
-0.000121182
-4.40446e-06
2.46018e-05
3.02596e-06
7.93115e-05
5.40268e-05
-4.82928e-05
0.000178141
-0.000131907
0.000372441
-0.000230612
0.000530587
-0.000338596
0.000692483
-0.000451075
0.000852961
-0.000561821
0.000997414
-0.000664132
0.00111237
-0.000752269
0.00118856
-0.000822498
0.00122229
-0.00087358
0.00121547
-0.000906758
0.00117443
-0.00092529
0.00110813
-0.000933575
0.00102612
-0.000936108
0.000936693
-0.00093659
0.000845745
-0.000937456
0.00075649
-0.000939865
0.000669981
-0.000944021
0.000585947
-0.000949596
0.000503582
-0.000956085
0.000422062
-0.000963029
0.000340779
-0.0009701
0.000259367
-0.000977112
0.000177644
-0.000983983
9.55347e-05
-0.000990692
1.30211e-05
-0.000997242
-6.98875e-05
-0.00100364
-0.000153162
-0.00100986
-0.000236756
-0.00101591
-0.00032059
-0.00102181
-0.000404544
-0.00102774
-0.000488474
-0.00103418
-0.000572274
-0.00104211
-0.000656027
-0.00105319
-0.000740291
-0.00106967
-0.000826482
-0.0010936
-0.000917178
-0.00112519
-0.00101582
-0.0011601
-0.00112503
-0.001187
-0.00124304
-0.00118723
-0.00135871
-0.00113871
-0.00144788
-0.00102429
-0.00147493
-0.000842044
-0.00140265
-0.000612608
-0.00120954
-0.000377714
-0.000908815
-0.000185601
-0.000557386
-6.59116e-05
-0.000240872
-1.23455e-05
-2.89645e-05
2.0349e-06
6.49311e-05
5.60617e-05
-4.96756e-05
0.000227816
-0.000135012
0.000457778
-0.000233788
0.000629363
-0.000339136
0.000797831
-0.000445718
0.000959543
-0.000547291
0.00109899
-0.000637729
0.00120281
-0.000712341
0.00126317
-0.000768721
0.00127867
-0.000807047
0.0012538
-0.000829834
0.00119722
-0.00084119
0.00111948
-0.000845733
0.00103066
-0.000847529
0.00093849
-0.000849397
0.000847613
-0.000852753
0.000759846
-0.000857891
0.000675119
-0.000864456
0.000592513
-0.000871881
0.000511006
-0.000879654
0.000429836
-0.00088744
0.000348565
-0.000895073
0.000266999
-0.000902511
0.000185082
-0.000909785
0.000102808
-0.000916943
2.01791e-05
-0.000924029
-6.28014e-05
-0.000931056
-0.000146134
-0.000938001
-0.000229812
-0.00094479
-0.000313801
-0.000951311
-0.000398023
-0.000957453
-0.000482332
-0.000963209
-0.000566518
-0.000968872
-0.000650364
-0.00097534
-0.000733822
-0.000984429
-0.000817394
-0.000998896
-0.000902712
-0.00102165
-0.000993064
-0.00105356
-0.00109312
-0.00108995
-0.00120664
-0.00111736
-0.0013313
-0.00111351
-0.00145173
-0.00105323
-0.00153521
-0.000919903
-0.00153597
-0.000718072
-0.00141137
-0.000479912
-0.00114698
-0.00025808
-0.000779218
-0.000101445
-0.000397507
-2.37491e-05
-0.00010666
3.02318e-07
4.08795e-05
5.6364e-05
-4.85525e-05
0.000276369
-0.000132659
0.000541884
-0.00022869
0.000725395
-0.000328834
0.000897974
-0.000427482
0.00105819
-0.000518694
0.0011902
-0.000597132
0.00128125
-0.000659227
0.00132526
-0.000703838
0.00132328
-0.000732337
0.0012823
-0.000748121
0.001213
-0.000755635
0.001127
-0.000759209
0.00103423
-0.000762121
0.000941402
-0.000766204
0.000851696
-0.000771993
0.000765635
-0.000779208
0.000682333
-0.000787253
0.000600557
-0.000795572
0.000519325
-0.000803802
0.000438066
-0.000811785
0.000356548
-0.000819507
0.000274721
-0.000827034
0.000192609
-0.000834458
0.000110231
-0.000841862
2.75836e-05
-0.000849311
-5.5352e-05
-0.000856835
-0.000138611
-0.000864424
-0.000222222
-0.000872022
-0.000306203
-0.000879504
-0.000390541
-0.000886674
-0.000475161
-0.000893292
-0.0005599
-0.000899174
-0.000644482
-0.000904428
-0.000728568
-0.000909861
-0.000811961
-0.000917451
-0.000895122
-0.000930514
-0.00098
-0.000952778
-0.00107086
-0.000985517
-0.00117391
-0.00102292
-0.0012939
-0.00104813
-0.00142651
-0.00103442
-0.00154893
-0.000954408
-0.00161598
-0.0007955
-0.00157028
-0.000573859
-0.00136862
-0.000336957
-0.00101612
-0.000146023
-0.000588441
-3.89906e-05
-0.000213693
-2.31118e-06
4.20007e-06
5.40528e-05
-4.50439e-05
0.000321413
-0.000125191
0.000622032
-0.000216052
0.000816255
-0.000308992
0.000990915
-0.000398376
0.00114758
-0.00047879
0.00127061
-0.000545793
0.00134825
-0.000596901
0.00137637
-0.000632057
0.00135844
-0.000653507
0.00130375
-0.000665089
0.00122458
-0.000671128
0.00113304
-0.000675318
0.00103842
-0.000680029
0.000946114
-0.000686217
0.000857883
-0.000693808
0.000773226
-0.000702248
0.000690773
-0.000710943
0.000609253
-0.00071949
0.000527871
-0.000727711
0.000446288
-0.000735602
0.000364439
-0.00074325
0.00028237
-0.000750771
0.00020013
-0.000758273
0.000117733
-0.000765843
3.51535e-05
-0.000773544
-4.76503e-05
-0.000781412
-0.000130743
-0.000789457
-0.000214178
-0.000797653
-0.000298007
-0.000805921
-0.000382272
-0.000814105
-0.000466977
-0.000821948
-0.000552057
-0.000829103
-0.000637328
-0.000835227
-0.000722443
-0.000840266
-0.000806922
-0.000844971
-0.000890417
-0.000851572
-0.000973399
-0.000864055
-0.00105837
-0.000886931
-0.00115103
-0.000921324
-0.00125951
-0.000958915
-0.00138892
-0.0009778
-0.00153004
-0.000946368
-0.00164741
-0.00083769
-0.00167896
-0.000648968
-0.00155734
-0.000414271
-0.00125082
-0.000197603
-0.000805109
-5.87275e-05
-0.000352568
-5.87704e-06
-4.86505e-05
4.81758e-05
-3.94232e-05
0.000360836
-0.000113209
0.000695818
-0.000196915
0.000899961
-0.000281205
0.00107521
-0.000360592
0.00122696
-0.000430325
0.00134035
-0.000486876
0.0014048
-0.000528721
0.00141822
-0.000556631
0.00138635
-0.000573358
0.00132048
-0.000582779
0.00123401
-0.000588764
0.00113902
-0.00059422
0.00104388
-0.00060067
0.000952564
-0.000608421
0.000865635
-0.000617073
0.000781878
-0.000626031
0.000699731
-0.000634836
0.000618058
-0.000643269
0.000536305
-0.000651313
0.000454331
-0.00065906
0.000372187
-0.000666642
0.000289951
-0.00067418
0.000207669
-0.000681777
0.00012533
-0.000689505
4.28812e-05
-0.000697418
-3.97375e-05
-0.000705546
-0.000122614
-0.000713908
-0.000205816
-0.000722501
-0.000289415
-0.000731289
-0.000373484
-0.000740184
-0.000458083
-0.000749007
-0.000543234
-0.000757455
-0.00062888
-0.000765089
-0.000714809
-0.000771431
-0.000800581
-0.000776295
-0.000885552
-0.000780473
-0.000969221
-0.000786624
-0.00105222
-0.000799585
-0.00113807
-0.000824497
-0.0012346
-0.000861264
-0.00135216
-0.000896951
-0.00149436
-0.0009028
-0.00164156
-0.00084344
-0.00173832
-0.000697994
-0.00170278
-0.000481808
-0.001467
-0.000252108
-0.00103481
-8.31043e-05
-0.000521572
-1.03759e-05
-0.000121379
3.77999e-05
-3.20629e-05
0.000392899
-9.7462e-05
0.000761217
-0.000172467
0.000974966
-0.000247142
0.00114988
-0.000316254
0.00129607
-0.000375781
0.00139987
-0.000423044
0.00145207
-0.000457296
0.00145247
-0.000479845
0.0014089
-0.000493605
0.00133423
-0.000502171
0.00124257
-0.000508774
0.00114563
-0.000515537
0.00105064
-0.000523309
0.000960336
-0.000531999
0.000874325
-0.000541099
0.000790978
-0.000550111
0.000708743
-0.00055875
0.000626697
-0.000566955
0.00054451
-0.000574809
0.000462186
-0.000582452
0.000379829
-0.000590017
0.000297517
-0.000597617
0.000215268
-0.000605335
0.000133048
-0.000613231
5.07767e-05
-0.000621348
-3.16199e-05
-0.000629712
-0.00011425
-0.000638337
-0.00019719
-0.000647229
-0.000280522
-0.000656376
-0.000364338
-0.000665735
-0.000448724
-0.000675209
-0.00053376
-0.000684602
-0.000619486
-0.000693566
-0.000705844
-0.000701573
-0.000792575
-0.000708021
-0.000879104
-0.000712661
-0.00096458
-0.000716488
-0.0010484
-0.000722876
-0.00113168
-0.000737723
-0.00121975
-0.000766285
-0.00132359
-0.000805276
-0.00145536
-0.000834266
-0.00161257
-0.000816753
-0.00175583
-0.000718048
-0.00180149
-0.000532965
-0.00165208
-0.000304264
-0.00126351
-0.00011111
-0.000714725
-1.58106e-05
-0.000216679
2.19893e-05
-2.33869e-05
0.000416286
-7.87554e-05
0.000816586
-0.000143906
0.00104012
-0.000208391
0.00121437
-0.000267268
0.00135495
-0.000317241
0.00144985
-0.000356378
0.0014912
-0.000384497
0.00148059
-0.00040316
0.00142756
-0.000415149
0.00134622
-0.00042357
0.00125099
-0.000430957
0.00115301
-0.000438753
0.00105844
-0.000447339
0.000968922
-0.000456431
0.000883417
-0.000465558
0.000800104
-0.000474368
0.000717553
-0.000482731
0.000635061
-0.000490696
0.000552475
-0.000498395
0.000469884
-0.000505973
0.000387407
-0.000513553
0.000305097
-0.000521229
0.000222945
-0.000529072
0.000140891
-0.000537134
5.88385e-05
-0.000545455
-2.32986e-05
-0.000554053
-0.000105652
-0.000562939
-0.000188304
-0.000572117
-0.000271344
-0.00058158
-0.000354875
-0.000591304
-0.000438999
-0.000601242
-0.000523823
-0.000611284
-0.000609444
-0.000621209
-0.000695919
-0.000630614
-0.00078317
-0.000638873
-0.000870845
-0.000645282
-0.000958172
-0.000649631
-0.00104405
-0.000653393
-0.00112792
-0.000661065
-0.00121208
-0.000679671
-0.00130499
-0.000713241
-0.0014218
-0.000751995
-0.00157382
-0.000765039
-0.00174279
-0.000710385
-0.00185614
-0.000563901
-0.00179857
-0.000349041
-0.00147837
-0.000140756
-0.00092301
-2.20784e-05
-0.000335356
-8.90588e-08
-1.38363e-05
0.000430123
-5.78874e-05
0.000860637
-0.000112358
0.00109459
-0.000166365
0.00126837
-0.000215237
0.00140382
-0.000256355
0.00149096
-0.000288405
0.00152325
-0.000311562
0.00150374
-0.000327397
0.00144339
-0.000338344
0.00135717
-0.000346909
0.00125956
-0.00035496
0.00116106
-0.000363406
0.00106689
-0.000372341
0.000977857
-0.000381439
0.000892515
-0.000390332
0.000808997
-0.000398814
0.000726036
-0.00040687
0.000643118
-0.000414606
0.000560211
-0.000422169
0.000477447
-0.000429692
0.00039493
-0.000437281
0.000312687
-0.000445017
0.00023068
-0.000452963
0.000148838
-0.000461174
6.70494e-05
-0.000469691
-1.47816e-05
-0.000478528
-9.68156e-05
-0.000487692
-0.00017914
-0.000497181
-0.000261855
-0.000506983
-0.000345072
-0.000517082
-0.000428901
-0.000527444
-0.00051346
-0.00053801
-0.000598878
-0.000548652
-0.000685276
-0.000559109
-0.000772713
-0.0005689
-0.000861055
-0.000577288
-0.000949783
-0.000583508
-0.00103783
-0.00058758
-0.00112385
-0.000591891
-0.00120777
-0.000602527
-0.00129435
-0.00062714
-0.00139718
-0.000665598
-0.00153536
-0.000697037
-0.00171135
-0.000679347
-0.00187383
-0.000573791
-0.00190412
-0.000382734
-0.00166943
-0.00016947
-0.00113627
-2.93879e-05
-0.000475438
-2.94769e-05
-3.8308e-06
0.000433954
-3.56223e-05
0.000892429
-7.88305e-05
0.0011378
-0.000122264
0.00131181
-0.000161445
0.001443
-0.000194354
0.00152387
-0.000220166
0.00154907
-0.00023923
0.00152281
-0.000252931
0.0014571
-0.000263217
0.00136746
-0.000271956
0.0012683
-0.000280425
0.00116953
-0.000289142
0.0010756
-0.000298059
0.000986774
-0.000306892
0.000901348
-0.000315397
0.000817502
-0.000323488
0.000734127
-0.000331221
0.000650851
-0.000338726
0.000567716
-0.000346143
0.000484863
-0.000353589
0.000402376
-0.000361155
0.000320253
-0.000368913
0.000238438
-0.000376927
0.000156852
-0.000385258
7.53811e-05
-0.000393954
-6.0859e-06
-0.00040303
-8.77397e-05
-0.00041249
-0.000169679
-0.000422323
-0.000252022
-0.000432514
-0.000334882
-0.000443039
-0.000418376
-0.000453871
-0.000502628
-0.000464969
-0.00058778
-0.000476256
-0.00067399
-0.00048757
-0.000761398
-0.000498586
-0.000850039
-0.000508717
-0.000939652
-0.000517112
-0.00102943
-0.000523041
-0.00111792
-0.000527103
-0.0012037
-0.000533227
-0.00128823
-0.000549352
-0.00138106
-0.0005818
-0.00150292
-0.000621008
-0.00167214
-0.000630959
-0.00186388
-0.00056435
-0.00197073
-0.00040346
-0.00183032
-0.000194817
-0.00134492
-3.78011e-05
-0.000632454
-6.7278e-05
6.09225e-06
0.000427862
-1.2628e-05
0.000911149
-4.42133e-05
0.00116938
-7.70795e-05
0.00134467
-0.000106891
0.00147282
-0.000132123
0.00154911
-0.000152326
0.00156927
-0.000167881
0.00153836
-0.000179852
0.00146907
-0.000189621
0.00137722
-0.000198427
0.00127711
-0.000207042
0.00117815
-0.000215714
0.00108427
-0.000224342
0.000995402
-0.000232728
0.000909734
-0.000240747
0.000825522
-0.000248402
0.000741781
-0.000255787
0.000658237
-0.000263035
0.000574964
-0.000270271
0.000492099
-0.000277596
0.000409702
-0.000285094
0.000327751
-0.000292831
0.000246175
-0.00030087
0.000164892
-0.000309287
8.37983e-05
-0.000318137
2.76412e-06
-0.000327446
-7.84308e-05
-0.000337214
-0.000159911
-0.000347423
-0.000241813
-0.000358048
-0.000324256
-0.000369065
-0.000407359
-0.000380441
-0.000491251
-0.000392143
-0.000576078
-0.000404115
-0.000662017
-0.000416252
-0.000749261
-0.000428337
-0.000837954
-0.00043995
-0.00092804
-0.000450372
-0.00101901
-0.000458669
-0.00110962
-0.00046437
-0.001198
-0.000469247
-0.00128335
-0.000479514
-0.00137079
-0.000504221
-0.00147821
-0.000543548
-0.00163282
-0.000571592
-0.00183584
-0.000538987
-0.00200334
-0.000411112
-0.00195819
-0.000215036
-0.00154099
-4.6896e-05
-0.000800593
-0.000114174
1.53258e-05
0.000412536