/*--------------------------------*- C++ -*----------------------------------*\
  =========                 |
  \\      /  F ield         | OpenFOAM: The Open Source CFD Toolbox
   \\    /   O peration     | Website:  https://openfoam.org
    \\  /    A nd           | Version:  7
     \\/     M anipulation  |
\*---------------------------------------------------------------------------*/
FoamFile
{
    version     2.0;
    format      ascii;
    class       volVectorField;
    location    "550";
    object      U;
}
// * * * * * * * * * * * * * * * * * * * * * * * * * * * * * * * * * * * * * //

dimensions      [0 1 -1 0 0 0 0];

internalField   nonuniform List<vector> 
2500
(
(0.00020575 -0.000203385 0)
(0.00186574 -0.000573265 0)
(0.00447369 -0.000698674 0)
(0.00716403 -0.000600574 0)
(0.00923031 -0.000419224 0)
(0.0104514 -0.000264487 0)
(0.0109309 -0.000188171 0)
(0.0108813 -0.000186082 0)
(0.0104502 -0.000220084 0)
(0.0096327 -0.00024562 0)
(0.00827941 -0.000228795 0)
(0.0061578 -0.000150759 0)
(0.0030104 -2.46078e-06 0)
(-0.00140667 0.000221482 0)
(-0.00729824 0.000524218 0)
(-0.014797 0.000909319 0)
(-0.0239254 0.00137683 0)
(-0.0345536 0.00191514 0)
(-0.0463637 0.00249105 0)
(-0.0588296 0.00304224 0)
(-0.0712228 0.00347889 0)
(-0.0826494 0.0036963 0)
(-0.09212 0.00359594 0)
(-0.0986516 0.00311248 0)
(-0.101378 0.00224003 0)
(-0.0996247 0.00103653 0)
(-0.093122 -0.000367337 0)
(-0.0819425 -0.00180588 0)
(-0.0665527 -0.00310545 0)
(-0.0478083 -0.00409906 0)
(-0.0269272 -0.00464172 0)
(-0.00539232 -0.00461098 0)
(0.01527 -0.00394362 0)
(0.0335893 -0.00279343 0)
(0.0482579 -0.00138084 0)
(0.0583176 0.000116295 0)
(0.063386 0.00148854 0)
(0.0636739 0.00252769 0)
(0.0599851 0.00310758 0)
(0.0534849 0.0032226 0)
(0.0454052 0.00298573 0)
(0.0368501 0.00254982 0)
(0.0286575 0.00204937 0)
(0.0213487 0.00157516 0)
(0.0151539 0.00117501 0)
(0.0100851 0.000864086 0)
(0.00603278 0.00063179 0)
(0.0029035 0.00043648 0)
(0.000796458 0.000193167 0)
(-8.18118e-05 -8.72027e-05 0)
(0.000564577 -0.00182052 0)
(0.0043781 -0.00431568 0)
(0.00958401 -0.00511818 0)
(0.0146056 -0.00444128 0)
(0.0181617 -0.00299792 0)
(0.0197665 -0.00145688 0)
(0.0194584 -0.000191266 0)
(0.0174485 0.000767199 0)
(0.0138217 0.00162758 0)
(0.0083884 0.00266873 0)
(0.000711283 0.0041079 0)
(-0.00976628 0.00605098 0)
(-0.0235737 0.0085021 0)
(-0.0410734 0.0113942 0)
(-0.0623455 0.0145888 0)
(-0.0870823 0.01786 0)
(-0.114525 0.0208873 0)
(-0.143479 0.0232781 0)
(-0.17242 0.0246236 0)
(-0.199667 0.0245665 0)
(-0.223564 0.0228598 0)
(-0.242631 0.0194037 0)
(-0.255667 0.0142624 0)
(-0.261817 0.00766825 0)
(-0.260606 1.09147e-05 0)
(-0.251966 -0.00819376 0)
(-0.23609 -0.0163751 0)
(-0.213428 -0.0239795 0)
(-0.184744 -0.030444 0)
(-0.151126 -0.0352344 0)
(-0.113983 -0.0378882 0)
(-0.0750122 -0.0380613 0)
(-0.0361236 -0.0356079 0)
(0.000747898 -0.0307098 0)
(0.0337567 -0.0238647 0)
(0.0612246 -0.0157986 0)
(0.0818335 -0.00733267 0)
(0.0948594 0.000650588 0)
(0.100167 0.00730742 0)
(0.0983669 0.0120545 0)
(0.0909124 0.014693 0)
(0.0795892 0.0154234 0)
(0.0662236 0.01471 0)
(0.0524145 0.0131061 0)
(0.0393411 0.0111179 0)
(0.0276992 0.00911221 0)
(0.0177783 0.00725108 0)
(0.00968569 0.00543696 0)
(0.00372803 0.00334524 0)
(0.000329599 0.000919588 0)
(0.000785802 -0.0044989 0)
(0.00568885 -0.00969621 0)
(0.0117179 -0.0109184 0)
(0.0169049 -0.00900503 0)
(0.0197592 -0.00542135 0)
(0.019704 -0.00146566 0)
(0.0166568 0.00215804 0)
(0.010615 0.0054304 0)
(0.00135272 0.008791 0)
(-0.0116626 0.0128064 0)
(-0.0291445 0.0178624 0)
(-0.0517206 0.024036 0)
(-0.079696 0.0311153 0)
(-0.11284 0.0386361 0)
(-0.150277 0.0459176 0)
(-0.190529 0.0521404 0)
(-0.231708 0.0564808 0)
(-0.271776 0.0582528 0)
(-0.308809 0.0570102 0)
(-0.341182 0.0525875 0)
(-0.367658 0.0450843 0)
(-0.387394 0.0348162 0)
(-0.399876 0.022256 0)
(-0.404846 0.00798388 0)
(-0.40223 -0.0073504 0)
(-0.392004 -0.0230647 0)
(-0.374204 -0.0384486 0)
(-0.3491 -0.0527144 0)
(-0.317176 -0.0650268 0)
(-0.279199 -0.0745463 0)
(-0.236257 -0.0804993 0)
(-0.189787 -0.0822756 0)
(-0.141546 -0.0795432 0)
(-0.0935389 -0.0723559 0)
(-0.0478784 -0.0612598 0)
(-0.00655938 -0.04726 0)
(0.0286944 -0.0316472 0)
(0.0565228 -0.0158699 0)
(0.0762323 -0.00121854 0)
(0.087551 0.01111 0)
(0.0907377 0.0202067 0)
(0.0870446 0.0257064 0)
(0.0781761 0.0278397 0)
(0.0660219 0.0272952 0)
(0.0523824 0.0249716 0)
(0.0387195 0.0217243 0)
(0.0260346 0.0181243 0)
(0.0149693 0.0142424 0)
(0.00625743 0.00958633 0)
(0.000705413 0.00358866 0)
(0.000917735 -0.00773026 0)
(0.00606782 -0.0155935 0)
(0.0115435 -0.0165372 0)
(0.0151572 -0.0124476 0)
(0.0154057 -0.00572617 0)
(0.0117305 0.00171001 0)
(0.00390651 0.00895615 0)
(-0.00841586 0.0161217 0)
(-0.0259026 0.0239701 0)
(-0.0493695 0.0332521 0)
(-0.0794536 0.044247 0)
(-0.116251 0.0566128 0)
(-0.159092 0.0694724 0)
(-0.20652 0.0816021 0)
(-0.256494 0.0916724 0)
(-0.30673 0.0984976 0)
(-0.355053 0.101231 0)
(-0.399655 0.0994506 0)
(-0.439205 0.0931448 0)
(-0.472828 0.0826156 0)
(-0.500002 0.0683643 0)
(-0.520428 0.0509887 0)
(-0.533915 0.0311176 0)
(-0.540299 0.00938713 0)
(-0.539424 -0.0135418 0)
(-0.531103 -0.0369398 0)
(-0.515208 -0.0599615 0)
(-0.491712 -0.0816425 0)
(-0.46072 -0.100916 0)
(-0.422551 -0.116642 0)
(-0.377823 -0.127684 0)
(-0.327549 -0.13304 0)
(-0.273197 -0.132013 0)
(-0.216705 -0.124398 0)
(-0.160385 -0.110626 0)
(-0.106719 -0.0918051 0)
(-0.0580571 -0.0696349 0)
(-0.0162713 -0.046119 0)
(0.0174427 -0.0231725 0)
(0.0424925 -0.00254008 0)
(0.058818 0.0145407 0)
(0.0666763 0.0271455 0)
(0.067178 0.0348979 0)
(0.0618777 0.038138 0)
(0.0525646 0.037769 0)
(0.0410301 0.034926 0)
(0.0288257 0.0305666 0)
(0.0171872 0.0250335 0)
(0.00742054 0.017743 0)
(0.000862045 0.00736794 0)
(0.000999721 -0.0110208 0)
(0.00560864 -0.0208268 0)
(0.00922207 -0.0203434 0)
(0.00966435 -0.0128917 0)
(0.00559768 -0.0019205 0)
(-0.00349697 0.0101472 0)
(-0.0180851 0.022412 0)
(-0.038923 0.0353186 0)
(-0.0669447 0.0498068 0)
(-0.102801 0.0664013 0)
(-0.146388 0.0847273 0)
(-0.196627 0.103552 0)
(-0.251577 0.121145 0)
(-0.308786 0.135709 0)
(-0.36575 0.14576 0)
(-0.420288 0.15035 0)
(-0.470759 0.149111 0)
(-0.516078 0.142171 0)
(-0.555621 0.129986 0)
(-0.589062 0.113176 0)
(-0.616248 0.0924138 0)
(-0.637094 0.0683592 0)
(-0.651538 0.041648 0)
(-0.6595 0.0129063 0)
(-0.66088 -0.0172141 0)
(-0.655542 -0.0479862 0)
(-0.643273 -0.0785533 0)
(-0.623797 -0.107906 0)
(-0.596821 -0.134864 0)
(-0.562112 -0.158072 0)
(-0.519619 -0.176058 0)
(-0.469634 -0.18735 0)
(-0.412965 -0.190696 0)
(-0.351087 -0.185319 0)
(-0.286203 -0.171198 0)
(-0.221148 -0.149261 0)
(-0.159088 -0.121397 0)
(-0.103027 -0.0902099 0)
(-0.055256 -0.058553 0)
(-0.016966 -0.028947 0)
(0.0117149 -0.00316945 0)
(0.0311679 0.0175764 0)
(0.0419455 0.0326199 0)
(0.045251 0.0418058 0)
(0.0426035 0.0456713 0)
(0.0357289 0.0452839 0)
(0.02639 0.0417527 0)
(0.0162455 0.0355982 0)
(0.00710768 0.0261584 0)
(0.000796213 0.0113842 0)
(0.000995445 -0.0139242 0)
(0.0041572 -0.0242894 0)
(0.00456897 -0.0208664 0)
(0.000374323 -0.00870694 0)
(-0.00949948 0.0076861 0)
(-0.0256154 0.0256321 0)
(-0.0487174 0.044531 0)
(-0.0797857 0.0650562 0)
(-0.119533 0.0878627 0)
(-0.167773 0.112635 0)
(-0.223158 0.137914 0)
(-0.28338 0.161547 0)
(-0.345671 0.181311 0)
(-0.407337 0.19543 0)
(-0.466158 0.202837 0)
(-0.520553 0.203187 0)
(-0.56955 0.196707 0)
(-0.612643 0.183978 0)
(-0.649642 0.165745 0)
(-0.68055 0.14279 0)
(-0.705494 0.115867 0)
(-0.724673 0.0856784 0)
(-0.738312 0.0528711 0)
(-0.746603 0.0180515 0)
(-0.749655 -0.0181905 0)
(-0.74747 -0.0552407 0)
(-0.739851 -0.0923923 0)
(-0.72636 -0.128767 0)
(-0.706381 -0.163259 0)
(-0.679146 -0.194484 0)
(-0.64386 -0.220772 0)
(-0.599873 -0.240253 0)
(-0.54694 -0.251041 0)
(-0.485505 -0.251531 0)
(-0.41698 -0.240797 0)
(-0.343898 -0.218991 0)
(-0.26983 -0.187623 0)
(-0.198963 -0.149545 0)
(-0.135352 -0.108527 0)
(-0.0820033 -0.0684489 0)
(-0.0402104 -0.0324339 0)
(-0.00960115 -0.00234929 0)
(0.010991 0.021071 0)
(0.0227573 0.037546 0)
(0.0271261 0.0472906 0)
(0.0257605 0.0510858 0)
(0.0204506 0.049925 0)
(0.0130699 0.0443128 0)
(0.00574588 0.0334748 0)
(0.0005906 0.0148936 0)
(0.000839153 -0.0158626 0)
(0.00147645 -0.0247575 0)
(-0.0026131 -0.0166725 0)
(-0.0127153 0.00148091 0)
(-0.0296145 0.0244442 0)
(-0.0539858 0.049622 0)
(-0.0867288 0.0767061 0)
(-0.128601 0.106159 0)
(-0.179474 0.13773 0)
(-0.237915 0.169868 0)
(-0.301393 0.200093 0)
(-0.366874 0.225769 0)
(-0.431443 0.244784 0)
(-0.492739 0.255877 0)
(-0.549107 0.258661 0)
(-0.599554 0.253418 0)
(-0.643607 0.240857 0)
(-0.68117 0.221888 0)
(-0.712425 0.197488 0)
(-0.737761 0.168601 0)
(-0.757707 0.136097 0)
(-0.772855 0.100728 0)
(-0.783782 0.0631253 0)
(-0.790966 0.023807 0)
(-0.794736 -0.0167847 0)
(-0.795241 -0.058244 0)
(-0.79239 -0.100135 0)
(-0.785733 -0.141867 0)
(-0.774525 -0.182603 0)
(-0.757684 -0.221158 0)
(-0.733852 -0.25593 0)
(-0.701522 -0.28489 0)
(-0.659279 -0.305677 0)
(-0.606154 -0.315846 0)
(-0.542068 -0.313285 0)
(-0.468285 -0.296768 0)
(-0.387701 -0.266546 0)
(-0.304807 -0.224759 0)
(-0.225136 -0.17542 0)
(-0.154157 -0.123764 0)
(-0.0958767 -0.0749852 0)
(-0.0517608 -0.0328818 0)
(-0.0207993 0.000787914 0)
(-0.000785476 0.0258849 0)
(0.0102771 0.0427416 0)
(0.0142912 0.0519796 0)
(0.0131925 0.0543951 0)
(0.00900444 0.0503409 0)
(0.00399715 0.03892 0)
(0.000361838 0.0174897 0)
(0.000463795 -0.0160907 0)
(-0.00258366 -0.0209515 0)
(-0.0123068 -0.0065845 0)
(-0.0292683 0.0187016 0)
(-0.0539984 0.0493247 0)
(-0.0872488 0.0829417 0)
(-0.129742 0.119199 0)
(-0.181483 0.157747 0)
(-0.241144 0.197029 0)
(-0.306133 0.234333 0)
(-0.373211 0.266609 0)
(-0.439212 0.29132 0)
(-0.501531 0.306906 0)
(-0.558329 0.312837 0)
(-0.608496 0.309404 0)
(-0.651527 0.297445 0)
(-0.6874 0.278088 0)
(-0.716477 0.252577 0)
(-0.73941 0.222146 0)
(-0.757046 0.18792 0)
(-0.770309 0.150853 0)
(-0.780106 0.111686 0)
(-0.787232 0.0709544 0)
(-0.792327 0.029022 0)
(-0.795853 -0.013871 0)
(-0.798072 -0.0575611 0)
(-0.799022 -0.101913 0)
(-0.7984 -0.146689 0)
(-0.79558 -0.191437 0)
(-0.789519 -0.235373 0)
(-0.778714 -0.277251 0)
(-0.761215 -0.315245 0)
(-0.734756 -0.346917 0)
(-0.697038 -0.369305 0)
(-0.646218 -0.379236 0)
(-0.581541 -0.373878 0)
(-0.504021 -0.351515 0)
(-0.416932 -0.312389 0)
(-0.325845 -0.259324 0)
(-0.237913 -0.197744 0)
(-0.160334 -0.134726 0)
(-0.0982932 -0.0771167 0)
(-0.0533595 -0.0294679 0)
(-0.0236146 0.00679656 0)
(-0.00558819 0.0323926 0)
(0.00359413 0.0482519 0)
(0.00644451 0.0552184 0)
(0.00528149 0.0535677 0)
(0.00248442 0.0423643 0)
(0.000208954 0.0191521 0)
(-0.000173717 -0.0137744 0)
(-0.00797786 -0.0117981 0)
(-0.0241458 0.0102465 0)
(-0.0484742 0.0435594 0)
(-0.0812807 0.0827044 0)
(-0.1232 0.125463 0)
(-0.174368 0.170904 0)
(-0.233707 0.217425 0)
(-0.298748 0.262173 0)
(-0.366155 0.301693 0)
(-0.432505 0.332926 0)
(-0.494895 0.353863 0)
(-0.551213 0.363703 0)
(-0.600161 0.362674 0)
(-0.641164 0.351723 0)
(-0.674254 0.332228 0)
(-0.699964 0.305764 0)
(-0.7192 0.273919 0)
(-0.733094 0.238149 0)
(-0.742841 0.199668 0)
(-0.74958 0.159396 0)
(-0.754299 0.117962 0)
(-0.757795 0.0757321 0)
(-0.760674 0.0328808 0)
(-0.763385 -0.0105509 0)
(-0.76623 -0.0546052 0)
(-0.769333 -0.0993764 0)
(-0.772616 -0.144921 0)
(-0.77576 -0.191165 0)
(-0.778085 -0.2378 0)
(-0.778413 -0.284129 0)
(-0.774958 -0.328883 0)
(-0.765266 -0.370039 0)
(-0.746314 -0.404713 0)
(-0.714853 -0.429228 0)
(-0.668025 -0.439482 0)
(-0.604252 -0.431678 0)
(-0.524203 -0.403392 0)
(-0.431562 -0.354773 0)
(-0.333146 -0.289469 0)
(-0.237999 -0.214684 0)
(-0.15526 -0.139828 0)
(-0.0912888 -0.0737248 0)
(-0.0474355 -0.0216164 0)
(-0.0204544 0.0157407 0)
(-0.00549049 0.0400658 0)
(0.00119278 0.0527431 0)
(0.00266728 0.0543617 0)
(0.00160349 0.0441857 0)
(0.000183762 0.0201615 0)
(-0.00107486 -0.00814608 0)
(-0.0144293 0.00345051 0)
(-0.0373919 0.0341983 0)
(-0.0690774 0.0761094 0)
(-0.10954 0.124204 0)
(-0.159033 0.176022 0)
(-0.216808 0.229585 0)
(-0.280703 0.281932 0)
(-0.347442 0.329246 0)
(-0.413411 0.367861 0)
(-0.475385 0.395151 0)
(-0.530923 0.409873 0)
(-0.578481 0.412066 0)
(-0.617365 0.402734 0)
(-0.647633 0.383504 0)
(-0.669975 0.356321 0)
(-0.685537 0.323186 0)
(-0.695718 0.285937 0)
(-0.701951 0.246094 0)
(-0.70554 0.204784 0)
(-0.707562 0.162749 0)
(-0.70884 0.120401 0)
(-0.709965 0.0779039 0)
(-0.711338 0.0352544 0)
(-0.713266 -0.00765198 0)
(-0.715999 -0.0509745 0)
(-0.719677 -0.094909 0)
(-0.724412 -0.13966 0)
(-0.730219 -0.185398 0)
(-0.736911 -0.232202 0)
(-0.743943 -0.279935 0)
(-0.7502 -0.328059 0)
(-0.753784 -0.375365 0)
(-0.751856 -0.419684 0)
(-0.740681 -0.457663 0)
(-0.715994 -0.484781 0)
(-0.673797 -0.495768 0)
(-0.611553 -0.485579 0)
(-0.529543 -0.450872 0)
(-0.431959 -0.391706 0)
(-0.327118 -0.312868 0)
(-0.226237 -0.223941 0)
(-0.140506 -0.13728 0)
(-0.0771469 -0.0639096 0)
(-0.0366154 -0.00938139 0)
(-0.0137985 0.0267494 0)
(-0.00263752 0.0471072 0)
(0.00129767 0.0532205 0)
(0.00144493 0.045 0)
(0.000288097 0.020938 0)
(-0.00218208 0.00134032 0)
(-0.0214389 0.0250804 0)
(-0.0510425 0.0651308 0)
(-0.0895273 0.115818 0)
(-0.136578 0.172688 0)
(-0.191833 0.232631 0)
(-0.253592 0.292388 0)
(-0.318845 0.347831 0)
(-0.383923 0.394657 0)
(-0.445309 0.42945 0)
(-0.500201 0.450307 0)
(-0.546744 0.456889 0)
(-0.584063 0.450141 0)
(-0.612186 0.431892 0)
(-0.631914 0.404472 0)
(-0.644612 0.370341 0)
(-0.65193 0.33178 0)
(-0.655529 0.290661 0)
(-0.65686 0.248342 0)
(-0.657052 0.205679 0)
(-0.656891 0.163116 0)
(-0.656871 0.120802 0)
(-0.657271 0.0787089 0)
(-0.658229 0.0367084 0)
(-0.659855 -0.00536968 0)
(-0.662294 -0.0477032 0)
(-0.665649 -0.0904721 0)
(-0.670105 -0.133875 0)
(-0.675882 -0.178147 0)
(-0.683179 -0.223545 0)
(-0.692064 -0.270311 0)
(-0.702268 -0.318539 0)
(-0.712909 -0.36794 0)
(-0.722145 -0.417473 0)
(-0.72688 -0.464889 0)
(-0.722703 -0.506338 0)
(-0.704275 -0.536279 0)
(-0.666337 -0.547982 0)
(-0.605303 -0.534837 0)
(-0.521114 -0.492417 0)
(-0.418724 -0.420877 0)
(-0.308354 -0.326768 0)
(-0.203726 -0.222965 0)
(-0.117992 -0.125486 0)
(-0.058477 -0.047454 0)
(-0.023661 0.00618039 0)
(-0.00620042 0.037713 0)
(0.000673609 0.0503556 0)
(0.00180788 0.0453331 0)
(0.000485642 0.0218645 0)
(-0.00335985 0.014917 0)
(-0.0283595 0.0528886 0)
(-0.0639777 0.102417 0)
(-0.108215 0.161597 0)
(-0.160275 0.226433 0)
(-0.219082 0.292863 0)
(-0.28211 0.356371 0)
(-0.345843 0.412033 0)
(-0.406577 0.455518 0)
(-0.461151 0.48401 0)
(-0.507339 0.496529 0)
(-0.543992 0.493753 0)
(-0.571014 0.477599 0)
(-0.589238 0.450746 0)
(-0.600188 0.41615 0)
(-0.605739 0.376599 0)
(-0.607775 0.334392 0)
(-0.6079 0.291165 0)
(-0.6073 0.247911 0)
(-0.606723 0.205092 0)
(-0.606558 0.162819 0)
(-0.606948 0.121007 0)
(-0.60789 0.0794913 0)
(-0.609318 0.0380913 0)
(-0.611191 -0.00335699 0)
(-0.613554 -0.0449838 0)
(-0.61646 -0.0868946 0)
(-0.620056 -0.129199 0)
(-0.624588 -0.172055 0)
(-0.630396 -0.2157 0)
(-0.637876 -0.260472 0)
(-0.64738 -0.306788 0)
(-0.659 -0.35503 0)
(-0.672204 -0.405253 0)
(-0.685349 -0.456691 0)
(-0.695189 -0.507071 0)
(-0.696657 -0.551973 0)
(-0.683264 -0.584589 0)
(-0.648376 -0.59635 0)
(-0.587347 -0.578735 0)
(-0.500002 -0.526195 0)
(-0.39255 -0.43949 0)
(-0.277728 -0.328041 0)
(-0.172095 -0.20932 0)
(-0.090302 -0.103634 0)
(-0.0383362 -0.0253368 0)
(-0.0113488 0.0228559 0)
(-0.000161505 0.0453273 0)
(0.00229424 0.0453285 0)
(0.000720275 0.0231456 0)
(-0.00444425 0.0324302 0)
(-0.0345388 0.0862087 0)
(-0.075141 0.144999 0)
(-0.123714 0.211941 0)
(-0.17892 0.283401 0)
(-0.239002 0.354243 0)
(-0.300851 0.418907 0)
(-0.360777 0.47209 0)
(-0.415318 0.509822 0)
(-0.461839 0.530147 0)
(-0.498815 0.533165 0)
(-0.525898 0.520659 0)
(-0.543825 0.495548 0)
(-0.554178 0.461276 0)
(-0.559007 0.421209 0)
(-0.5604 0.378168 0)
(-0.560131 0.334164 0)
(-0.559467 0.290378 0)
(-0.559147 0.247318 0)
(-0.559481 0.205047 0)
(-0.560498 0.163404 0)
(-0.562089 0.122156 0)
(-0.564094 0.0810866 0)
(-0.56636 0.0400279 0)
(-0.568783 -0.00113659 0)
(-0.571364 -0.0424723 0)
(-0.574123 -0.0840105 0)
(-0.577121 -0.12577 0)
(-0.580519 -0.167797 0)
(-0.584582 -0.210199 0)
(-0.589711 -0.253204 0)
(-0.596448 -0.297213 0)
(-0.605409 -0.342828 0)
(-0.617068 -0.390754 0)
(-0.631325 -0.441477 0)
(-0.646833 -0.494589 0)
(-0.660256 -0.547814 0)
(-0.66584 -0.596001 0)
(-0.655822 -0.630695 0)
(-0.622106 -0.640991 0)
(-0.559108 -0.616133 0)
(-0.467032 -0.549679 0)
(-0.354176 -0.444068 0)
(-0.236604 -0.31337 0)
(-0.133872 -0.181299 0)
(-0.0609118 -0.0724802 0)
(-0.0200669 -0.000255056 0)
(-0.00227656 0.0368995 0)
(0.00246589 0.0446007 0)
(0.000939406 0.0247416 0)
(-0.00528706 0.0533167 0)
(-0.0394162 0.123981 0)
(-0.0836754 0.191502 0)
(-0.13496 0.265113 0)
(-0.191393 0.341513 0)
(-0.250672 0.414545 0)
(-0.309379 0.477914 0)
(-0.36392 0.526328 0)
(-0.411269 0.556492 0)
(-0.449439 0.567508 0)
(-0.477683 0.560672 0)
(-0.496481 0.538914 0)
(-0.507329 0.506075 0)
(-0.512354 0.466142 0)
(-0.513818 0.422574 0)
(-0.513679 0.377893 0)
(-0.513326 0.333583 0)
(-0.51353 0.290256 0)
(-0.514562 0.247952 0)
(-0.516375 0.20643 0)
(-0.518776 0.165375 0)
(-0.521549 0.124516 0)
(-0.524513 0.0836632 0)
(-0.527528 0.0426975 0)
(-0.530506 0.00155809 0)
(-0.53345 -0.0397722 0)
(-0.53638 -0.0812806 0)
(-0.539288 -0.122941 0)
(-0.54223 -0.164723 0)
(-0.54532 -0.206616 0)
(-0.548782 -0.248676 0)
(-0.55301 -0.291103 0)
(-0.558627 -0.334342 0)
(-0.566465 -0.37917 0)
(-0.577379 -0.426649 0)
(-0.591734 -0.477759 0)
(-0.608526 -0.532517 0)
(-0.624314 -0.588576 0)
(-0.632518 -0.639738 0)
(-0.623916 -0.675319 0)
(-0.588901 -0.681449 0)
(-0.521321 -0.644939 0)
(-0.422661 -0.559225 0)
(-0.304532 -0.430397 0)
(-0.187228 -0.279803 0)
(-0.0928227 -0.138979 0)
(-0.0339665 -0.0352337 0)
(-0.00651074 0.0231279 0)
(0.00200771 0.0422801 0)
(0.0011156 0.0264022 0)
(-0.00576714 0.0766698 0)
(-0.0425804 0.164872 0)
(-0.0890086 0.240379 0)
(-0.141339 0.319343 0)
(-0.197218 0.398875 0)
(-0.25398 0.471973 0)
(-0.30815 0.531948 0)
(-0.356433 0.573853 0)
(-0.39636 0.595309 0)
(-0.42666 0.596623 0)
(-0.447374 0.580343 0)
(-0.459729 0.550489 0)
(-0.465783 0.511621 0)
(-0.467904 0.467948 0)
(-0.468237 0.422676 0)
(-0.468343 0.377764 0)
(-0.469089 0.33405 0)
(-0.470757 0.291604 0)
(-0.473258 0.250119 0)
(-0.476345 0.209194 0)
(-0.479758 0.168493 0)
(-0.483298 0.127791 0)
(-0.486842 0.0869611 0)
(-0.490315 0.0459452 0)
(-0.49368 0.00472317 0)
(-0.496968 -0.0366994 0)
(-0.500208 -0.0782996 0)
(-0.503368 -0.12005 0)
(-0.50644 -0.161901 0)
(-0.509422 -0.203788 0)
(-0.51235 -0.245653 0)
(-0.515365 -0.287492 0)
(-0.518806 -0.329459 0)
(-0.523321 -0.372023 0)
(-0.529922 -0.416131 0)
(-0.539827 -0.463239 0)
(-0.553879 -0.514893 0)
(-0.571391 -0.57155 0)
(-0.588674 -0.63059 0)
(-0.598045 -0.68419 0)
(-0.58855 -0.718557 0)
(-0.549163 -0.716138 0)
(-0.473939 -0.661507 0)
(-0.367106 -0.549751 0)
(-0.245194 -0.393926 0)
(-0.133287 -0.22605 0)
(-0.0540301 -0.0858574 0)
(-0.0133546 0.00159786 0)
(0.000768298 0.037187 0)
(0.00125274 0.0277688 0)
(-0.00580921 0.101356 0)
(-0.0437996 0.2074 0)
(-0.0908785 0.290056 0)
(-0.142685 0.37298 0)
(-0.196491 0.453904 0)
(-0.249459 0.525231 0)
(-0.298256 0.580193 0)
(-0.340022 0.614461 0)
(-0.372906 0.626744 0)
(-0.396357 0.618636 0)
(-0.411123 0.593914 0)
(-0.419003 0.557518 0)
(-0.422342 0.514429 0)
(-0.423441 0.46873 0)
(-0.424076 0.42309 0)
(-0.425287 0.378767 0)
(-0.427436 0.335975 0)
(-0.430441 0.294376 0)
(-0.43402 0.253478 0)
(-0.43788 0.212862 0)
(-0.441802 0.172259 0)
(-0.445672 0.13153 0)
(-0.449448 0.0906197 0)
(-0.453117 0.0495133 0)
(-0.456686 0.00821115 0)
(-0.460216 -0.0332794 0)
(-0.463745 -0.074945 0)
(-0.467248 -0.116779 0)
(-0.470697 -0.15875 0)
(-0.474043 -0.200801 0)
(-0.477224 -0.242843 0)
(-0.480192 -0.284771 0)
(-0.482988 -0.326516 0)
(-0.485869 -0.36817 0)
(-0.489483 -0.410214 0)
(-0.494999 -0.453786 0)
(-0.503998 -0.500803 0)
(-0.517785 -0.55346 0)
(-0.53588 -0.6126 0)
(-0.554026 -0.674876 0)
(-0.562962 -0.72985 0)
(-0.549712 -0.759384 0)
(-0.502246 -0.741626 0)
(-0.416259 -0.660037 0)
(-0.300869 -0.514852 0)
(-0.179214 -0.33112 0)
(-0.0804802 -0.154838 0)
(-0.0231551 -0.030487 0)
(-0.00128554 0.0279914 0)
(0.00137021 0.0284645 0)
(-0.00539031 0.126131 0)
(-0.0430188 0.250059 0)
(-0.0893057 0.339041 0)
(-0.139209 0.424605 0)
(-0.189744 0.505397 0)
(-0.238072 0.573512 0)
(-0.281146 0.622376 0)
(-0.316612 0.648477 0)
(-0.343243 0.651722 0)
(-0.361134 0.634996 0)
(-0.371596 0.603184 0)
(-0.376756 0.561896 0)
(-0.378971 0.516204 0)
(-0.380239 0.469766 0)
(-0.381843 0.424546 0)
(-0.384319 0.381103 0)
(-0.387651 0.339157 0)
(-0.391556 0.298133 0)
(-0.395715 0.257505 0)
(-0.399888 0.216933 0)
(-0.40395 0.17625 0)
(-0.407875 0.135402 0)
(-0.411685 0.0943848 0)
(-0.415409 0.0532078 0)
(-0.419074 0.0118728 0)
(-0.42275 -0.0296231 0)
(-0.42649 -0.0712809 0)
(-0.430277 -0.113118 0)
(-0.434089 -0.155131 0)
(-0.437882 -0.197297 0)
(-0.441576 -0.239555 0)
(-0.445056 -0.281799 0)
(-0.448197 -0.323877 0)
(-0.450943 -0.365645 0)
(-0.453465 -0.407127 0)
(-0.456405 -0.448825 0)
(-0.461105 -0.492131 0)
(-0.469534 -0.539549 0)
(-0.483417 -0.594022 0)
(-0.502235 -0.656565 0)
(-0.520597 -0.722219 0)
(-0.526992 -0.776331 0)
(-0.506284 -0.794879 0)
(-0.446524 -0.751733 0)
(-0.34745 -0.632263 0)
(-0.22581 -0.447988 0)
(-0.112265 -0.242479 0)
(-0.0363871 -0.0761178 0)
(-0.00422758 0.0131943 0)
(0.00145947 0.0280803 0)
(-0.00453537 0.149758 0)
(-0.0403312 0.291412 0)
(-0.0845334 0.386014 0)
(-0.131396 0.473072 0)
(-0.17779 0.552521 0)
(-0.221011 0.616431 0)
(-0.258387 0.658638 0)
(-0.288088 0.676579 0)
(-0.309459 0.671389 0)
(-0.323117 0.647176 0)
(-0.330732 0.609737 0)
(-0.334525 0.565062 0)
(-0.336641 0.518019 0)
(-0.338645 0.471643 0)
(-0.341334 0.427158 0)
(-0.344847 0.384533 0)
(-0.348951 0.343162 0)
(-0.353311 0.302395 0)
(-0.357663 0.261776 0)
(-0.361866 0.221078 0)
(-0.365887 0.180235 0)
(-0.36976 0.139252 0)
(-0.373547 0.0981513 0)
(-0.377291 0.0569452 0)
(-0.381016 0.0156261 0)
(-0.384792 -0.0258219 0)
(-0.388677 -0.0674123 0)
(-0.392662 -0.10918 0)
(-0.396732 -0.151144 0)
(-0.400866 -0.193315 0)
(-0.405007 -0.235677 0)
(-0.409054 -0.27817 0)
(-0.412852 -0.320669 0)
(-0.416209 -0.362971 0)
(-0.418979 -0.404854 0)
(-0.42126 -0.446273 0)
(-0.423718 -0.487795 0)
(-0.427925 -0.531199 0)
(-0.436288 -0.579786 0)
(-0.450863 -0.637323 0)
(-0.47061 -0.704447 0)
(-0.488117 -0.772943 0)
(-0.488857 -0.82158 0)
(-0.455951 -0.819014 0)
(-0.379807 -0.736644 0)
(-0.267759 -0.568169 0)
(-0.14682 -0.345835 0)
(-0.0533652 -0.137504 0)
(-0.00822306 -0.00883546 0)
(0.00147256 0.0261607 0)
(-0.00330718 0.171094 0)
(-0.0359394 0.330164 0)
(-0.0769553 0.429869 0)
(-0.119891 0.517525 0)
(-0.161572 0.594774 0)
(-0.199519 0.653932 0)
(-0.231479 0.689397 0)
(-0.256117 0.699613 0)
(-0.273251 0.68691 0)
(-0.283864 0.656476 0)
(-0.289781 0.61479 0)
(-0.29311 0.567948 0)
(-0.295651 0.520395 0)
(-0.298518 0.474466 0)
(-0.302103 0.430715 0)
(-0.306296 0.388672 0)
(-0.310783 0.347578 0)
(-0.315275 0.306814 0)
(-0.319601 0.266043 0)
(-0.323714 0.225152 0)
(-0.327645 0.184143 0)
(-0.331463 0.143055 0)
(-0.335239 0.101912 0)
(-0.339015 0.0607177 0)
(-0.342806 0.0194509 0)
(-0.346669 -0.0219167 0)
(-0.350667 -0.0634063 0)
(-0.354796 -0.105065 0)
(-0.359042 -0.146925 0)
(-0.363399 -0.189017 0)
(-0.367838 -0.231361 0)
(-0.372299 -0.27395 0)
(-0.376664 -0.316725 0)
(-0.380747 -0.359537 0)
(-0.384296 -0.402126 0)
(-0.387088 -0.444178 0)
(-0.389173 -0.485598 0)
(-0.39131 -0.527119 0)
(-0.395409 -0.571151 0)
(-0.404385 -0.622104 0)
(-0.420385 -0.684487 0)
(-0.441 -0.75728 0)
(-0.455537 -0.826193 0)
(-0.445976 -0.860398 0)
(-0.395384 -0.821078 0)
(-0.300519 -0.682825 0)
(-0.180608 -0.459241 0)
(-0.0735416 -0.214997 0)
(-0.0135176 -0.0398799 0)
(0.00138788 0.0222257 0)
(-0.00179481 0.189161 0)
(-0.0301152 0.365199 0)
(-0.0670451 0.469722 0)
(-0.105405 0.557368 0)
(-0.142047 0.631919 0)
(-0.174765 0.686184 0)
(-0.201734 0.715214 0)
(-0.222049 0.718451 0)
(-0.235881 0.699325 0)
(-0.244409 0.663924 0)
(-0.249432 0.61917 0)
(-0.252807 0.571049 0)
(-0.255938 0.523467 0)
(-0.259542 0.478078 0)
(-0.263728 0.434893 0)
(-0.268265 0.393169 0)
(-0.272856 0.352109 0)
(-0.277295 0.311193 0)
(-0.281503 0.270207 0)
(-0.285503 0.229122 0)
(-0.289358 0.187984 0)
(-0.293146 0.146835 0)
(-0.296936 0.105692 0)
(-0.300764 0.0645425 0)
(-0.30463 0.0233531 0)
(-0.308578 -0.0179148 0)
(-0.31268 -0.0592866 0)
(-0.316936 -0.100819 0)
(-0.321321 -0.14255 0)
(-0.325839 -0.184522 0)
(-0.330478 -0.226775 0)
(-0.335206 -0.269338 0)
(-0.339957 -0.312213 0)
(-0.344601 -0.355334 0)
(-0.348919 -0.398521 0)
(-0.352602 -0.441436 0)
(-0.355364 -0.483664 0)
(-0.357259 -0.525108 0)
(-0.359251 -0.566872 0)
(-0.363764 -0.612413 0)
(-0.374243 -0.667611 0)
(-0.392361 -0.737124 0)
(-0.412908 -0.815593 0)
(-0.420508 -0.878299 0)
(-0.394295 -0.882116 0)
(-0.3212 -0.784462 0)
(-0.210067 -0.575648 0)
(-0.0953219 -0.306564 0)
(-0.0203341 -0.0816105 0)
(0.00124752 0.0157922 0)
(-0.000102468 0.203184 0)
(-0.0231653 0.395596 0)
(-0.055301 0.504901 0)
(-0.0886391 0.592225 0)
(-0.1201 0.663911 0)
(-0.147769 0.713485 0)
(-0.170222 0.736687 0)
(-0.186903 0.73389 0)
(-0.198208 0.70948 0)
(-0.205357 0.670249 0)
(-0.209984 0.623361 0)
(-0.213621 0.574546 0)
(-0.217293 0.527148 0)
(-0.221408 0.482225 0)
(-0.225906 0.439392 0)
(-0.230535 0.397763 0)
(-0.235059 0.356583 0)
(-0.239358 0.315449 0)
(-0.243428 0.274246 0)
(-0.247325 0.233005 0)
(-0.251126 0.191784 0)
(-0.254904 0.150618 0)
(-0.25872 0.109508 0)
(-0.262603 0.0684297 0)
(-0.266546 0.027338 0)
(-0.270576 -0.0138142 0)
(-0.27478 -0.0550543 0)
(-0.279163 -0.0964482 0)
(-0.283685 -0.138039 0)
(-0.288353 -0.179874 0)
(-0.293159 -0.222003 0)
(-0.298087 -0.264474 0)
(-0.303104 -0.307326 0)
(-0.308134 -0.350566 0)
(-0.31303 -0.394115 0)
(-0.317533 -0.437734 0)
(-0.321279 -0.480979 0)
(-0.323939 -0.523333 0)
(-0.325654 -0.564817 0)
(-0.327789 -0.607297 0)
(-0.33349 -0.655918 0)
(-0.346563 -0.718214 0)
(-0.366985 -0.797082 0)
(-0.384662 -0.877806 0)
(-0.378797 -0.919751 0)
(-0.32887 -0.86797 0)
(-0.232451 -0.688052 0)
(-0.116555 -0.408221 0)
(-0.0286724 -0.135173 0)
(0.00111378 0.00634967 0)
(0.00166017 0.212605 0)
(-0.0154062 0.420625 0)
(-0.0422051 0.534916 0)
(-0.0702364 0.62189 0)
(-0.0965023 0.690829 0)
(-0.119364 0.736187 0)
(-0.137758 0.754378 0)
(-0.151391 0.746591 0)
(-0.160762 0.718003 0)
(-0.167004 0.675919 0)
(-0.171497 0.627591 0)
(-0.175425 0.578429 0)
(-0.179487 0.531254 0)
(-0.183875 0.486653 0)
(-0.188456 0.443977 0)
(-0.193008 0.402289 0)
(-0.197372 0.360914 0)
(-0.2015 0.319554 0)
(-0.205431 0.278169 0)
(-0.209238 0.236818 0)
(-0.212994 0.195558 0)
(-0.216763 0.154409 0)
(-0.220596 0.11336 0)
(-0.224526 0.0723751 0)
(-0.228537 0.0314015 0)
(-0.232639 -0.0096163 0)
(-0.236941 -0.0507061 0)
(-0.241457 -0.091946 0)
(-0.246129 -0.133383 0)
(-0.250961 -0.175068 0)
(-0.255945 -0.217057 0)
(-0.26107 -0.259404 0)
(-0.266316 -0.302171 0)
(-0.271642 -0.345406 0)
(-0.276962 -0.389112 0)
(-0.282098 -0.433174 0)
(-0.286743 -0.47726 0)
(-0.290473 -0.520779 0)
(-0.292962 -0.563148 0)
(-0.294592 -0.604788 0)
(-0.297409 -0.649035 0)
(-0.305452 -0.703535 0)
(-0.322163 -0.776758 0)
(-0.343549 -0.865149 0)
(-0.352437 -0.936703 0)
(-0.324332 -0.930959 0)
(-0.246242 -0.790593 0)
(-0.135192 -0.514929 0)
(-0.0381433 -0.20034 0)
(0.000964821 -0.00656957 0)
(0.00338726 0.217117 0)
(-0.0071468 0.439699 0)
(-0.0282059 0.559425 0)
(-0.0507596 0.646274 0)
(-0.071892 0.712819 0)
(-0.0901988 0.754633 0)
(-0.10493 0.768762 0)
(-0.115974 0.757065 0)
(-0.123827 0.725325 0)
(-0.129446 0.681199 0)
(-0.133904 0.631924 0)
(-0.138052 0.582591 0)
(-0.142326 0.535585 0)
(-0.146784 0.491153 0)
(-0.151281 0.448484 0)
(-0.15565 0.406651 0)
(-0.159805 0.365062 0)
(-0.163748 0.323502 0)
(-0.16754 0.281978 0)
(-0.171255 0.240562 0)
(-0.174959 0.199301 0)
(-0.178704 0.158199 0)
(-0.182538 0.117233 0)
(-0.186495 0.0763631 0)
(-0.19056 0.0355315 0)
(-0.19472 -0.00532608 0)
(-0.19911 -0.0462404 0)
(-0.203765 -0.0873019 0)
(-0.2086 -0.128564 0)
(-0.213617 -0.170083 0)
(-0.218806 -0.211914 0)
(-0.224154 -0.254119 0)
(-0.229648 -0.296765 0)
(-0.235261 -0.339926 0)
(-0.240941 -0.383657 0)
(-0.246577 -0.427941 0)
(-0.251951 -0.472589 0)
(-0.256694 -0.517119 0)
(-0.260331 -0.560765 0)
(-0.262632 -0.603023 0)
(-0.26448 -0.645323 0)
(-0.268969 -0.69362 0)
(-0.280878 -0.75859 0)
(-0.301374 -0.846284 0)
(-0.319168 -0.937361 0)
(-0.309613 -0.9735 0)
(-0.251191 -0.879156 0)
(-0.149754 -0.621565 0)
(-0.0480183 -0.275357 0)
(0.000661222 -0.0234084 0)
(0.00493735 0.216532 0)
(0.00130795 0.45248 0)
(-0.0137022 0.57817 0)
(-0.0306889 0.665367 0)
(-0.0467818 0.730046 0)
(-0.0607601 0.769125 0)
(-0.072139 0.780211 0)
(-0.0809178 0.76567 0)
(-0.0875187 0.731711 0)
(-0.0926567 0.686207 0)
(-0.0970822 0.636328 0)
(-0.101339 0.586893 0)
(-0.105661 0.539965 0)
(-0.110031 0.495565 0)
(-0.114329 0.452805 0)
(-0.11845 0.410789 0)
(-0.122365 0.369001 0)
(-0.12611 0.327283 0)
(-0.129752 0.285668 0)
(-0.133361 0.244227 0)
(-0.136993 0.202995 0)
(-0.140692 0.161965 0)
(-0.144502 0.121105 0)
(-0.148465 0.0803732 0)
(-0.152568 0.039713 0)
(-0.156767 -0.000947798 0)
(-0.161231 -0.0416575 0)
(-0.166028 -0.0825059 0)
(-0.171038 -0.123565 0)
(-0.17626 -0.16489 0)
(-0.181681 -0.206541 0)
(-0.18729 -0.248581 0)
(-0.19307 -0.29108 0)
(-0.199002 -0.334125 0)
(-0.205051 -0.377801 0)
(-0.211144 -0.422158 0)
(-0.217135 -0.467127 0)
(-0.222746 -0.512383 0)
(-0.227537 -0.557226 0)
(-0.231029 -0.600748 0)
(-0.233274 -0.642947 0)
(-0.236068 -0.687445 0)
(-0.243852 -0.744313 0)
(-0.260992 -0.825892 0)
(-0.282631 -0.926677 0)
(-0.287359 -0.997518 0)
(-0.248067 -0.951493 0)
(-0.159506 -0.723639 0)
(-0.0574669 -0.357469 0)
(-5.7506e-06 -0.0445906 0)
(0.00615595 0.211082 0)
(0.00959505 0.458525 0)
(0.000981948 0.591062 0)
(-0.0104238 0.679178 0)
(-0.0215772 0.742664 0)
(-0.0314028 0.779891 0)
(-0.0396431 0.788983 0)
(-0.0463592 0.772632 0)
(-0.0518477 0.737302 0)
(-0.0565513 0.690969 0)
(-0.0608946 0.640728 0)
(-0.0651463 0.591202 0)
(-0.0693827 0.544253 0)
(-0.0735513 0.499777 0)
(-0.07757 0.456866 0)
(-0.0813963 0.414666 0)
(-0.0850452 0.372711 0)
(-0.0885713 0.330881 0)
(-0.0920417 0.289219 0)
(-0.0955185 0.247788 0)
(-0.0990513 0.206615 0)
(-0.102679 0.165683 0)
(-0.106442 0.124953 0)