/*--------------------------------*- C++ -*----------------------------------*\
  =========                 |
  \\      /  F ield         | OpenFOAM: The Open Source CFD Toolbox
   \\    /   O peration     | Website:  https://openfoam.org
    \\  /    A nd           | Version:  7
     \\/     M anipulation  |
\*---------------------------------------------------------------------------*/
FoamFile
{
    version     2.0;
    format      ascii;
    class       volScalarField;
    location    "1850";
    object      p;
}
// * * * * * * * * * * * * * * * * * * * * * * * * * * * * * * * * * * * * * //

dimensions      [0 2 -2 0 0 0 0];

internalField   nonuniform List<scalar> 
2500
(
1.29692e-07
7.10042e-05
-8.92273e-06
-0.000307731
-0.000782118
-0.00136965
-0.00203015
-0.00275907
-0.00358211
-0.00453994
-0.00567261
-0.00701002
-0.00856906
-0.0103495
-0.0123278
-0.01445
-0.0166239
-0.0187178
-0.020567
-0.0219893
-0.0228101
-0.0228899
-0.0221536
-0.0206176
-0.0184079
-0.0157508
-0.0129677
-0.010476
-0.00873757
-0.00819001
-0.00916604
-0.0118021
-0.0159857
-0.021421
-0.0276485
-0.0341065
-0.0402664
-0.0457276
-0.0502591
-0.0537862
-0.0563589
-0.0581121
-0.0592206
-0.0598602
-0.060183
-0.0603049
-0.0603039
-0.0602226
-0.0600833
-0.0599441
-6.91161e-05
3.69346e-06
-8.01106e-05
-0.000376562
-0.000828947
-0.00137311
-0.00197391
-0.00263281
-0.00337837
-0.00425091
-0.00528927
-0.00652337
-0.00797392
-0.00964867
-0.011536
-0.0135991
-0.0157671
-0.0179284
-0.0199304
-0.0215893
-0.0227128
-0.0231311
-0.0227303
-0.0214864
-0.0194943
-0.0169713
-0.0142544
-0.011779
-0.0100259
-0.00945175
-0.0104049
-0.0130444
-0.0172857
-0.0227791
-0.0290224
-0.0354675
-0.04156
-0.0468593
-0.0511264
-0.0543345
-0.0566015
-0.0581091
-0.0590508
-0.0595993
-0.0598907
-0.0600224
-0.0600562
-0.0600216
-0.05992
-0.0597883
-1.91473e-05
4.95482e-05
-5.73636e-05
-0.000379832
-0.000832241
-0.00133883
-0.00186942
-0.00243681
-0.00308205
-0.00385269
-0.00479283
-0.00594285
-0.00734075
-0.00902099
-0.0110035
-0.0132773
-0.0157819
-0.0183958
-0.0209366
-0.0231778
-0.0248803
-0.0258303
-0.0258763
-0.0249672
-0.0231954
-0.0207883
-0.018083
-0.0155132
-0.0135713
-0.0127377
-0.0133941
-0.0157383
-0.0197252
-0.0250526
-0.0312117
-0.0375811
-0.0435832
-0.0487757
-0.0528785
-0.0558262
-0.0577492
-0.0588931
-0.0595116
-0.0598092
-0.0599306
-0.0599654
-0.0599602
-0.0599246
-0.0598288
-0.0596844
0.000228047
0.000266115
0.000101676
-0.000279629
-0.000755432
-0.00123676
-0.00170267
-0.00218525
-0.00274554
-0.00345461
-0.00438583
-0.00561867
-0.00723793
-0.00932063
-0.0119097
-0.0149849
-0.0184432
-0.0220966
-0.025689
-0.0289297
-0.0315346
-0.0332642
-0.0339539
-0.0335396
-0.0320935
-0.0298186
-0.0270273
-0.0241403
-0.0216526
-0.0200708
-0.0198325
-0.021217
-0.0242727
-0.0287864
-0.0343076
-0.0402331
-0.0459407
-0.0509113
-0.0548499
-0.0576669
-0.0594137
-0.060302
-0.0606132
-0.0606074
-0.0604687
-0.0603071
-0.0601729
-0.060067
-0.059937
-0.0597721
0.000707322
0.00067722
0.000418042
-4.41362e-05
-0.000555351
-0.00102925
-0.00146033
-0.00190855
-0.0024746
-0.00328042
-0.00446301
-0.00617019
-0.00854123
-0.0116717
-0.015576
-0.0201634
-0.0252374
-0.0305175
-0.035673
-0.0403628
-0.0442727
-0.0471455
-0.0488025
-0.0491589
-0.0482449
-0.0462066
-0.0433085
-0.0399356
-0.0365602
-0.0336979
-0.0318407
-0.0313761
-0.0325057
-0.0351862
-0.0391172
-0.0437931
-0.048614
-0.0530191
-0.0566089
-0.059196
-0.0608145
-0.0616208
-0.061806
-0.0616206
-0.0612837
-0.0609384
-0.0606584
-0.0604568
-0.0602805
-0.0601036
0.00146246
0.00132844
0.000949071
0.000397447
-0.000168721
-0.000675246
-0.00114679
-0.00169615
-0.00249258
-0.00374221
-0.00567067
-0.008492
-0.0123619
-0.0173316
-0.0233211
-0.0301225
-0.0374265
-0.0448618
-0.0520347
-0.0585653
-0.0641168
-0.0684183
-0.0712813
-0.0726075
-0.0723956
-0.0707295
-0.0678066
-0.0639479
-0.059562
-0.0551244
-0.0511372
-0.0480714
-0.0462932
-0.0459887
-0.0471112
-0.0493771
-0.0523237
-0.0554215
-0.0582035
-0.0603602
-0.0617713
-0.0624856
-0.0626672
-0.0624789
-0.0620923
-0.0616665
-0.0613007
-0.0610323
-0.060827
-0.0606555
0.00253192
0.00226913
0.00176034
0.00110882
0.000451874
-0.000167359
-0.000836993
-0.00175266
-0.00318379
-0.00544048
-0.00882468
-0.0135657
-0.0197605
-0.0273424
-0.0360866
-0.0456451
-0.0555937
-0.0654789
-0.0748584
-0.0833327
-0.0905667
-0.096304
-0.100372
-0.10268
-0.103224
-0.102053
-0.0992942
-0.0951817
-0.0900188
-0.0841779
-0.0780908
-0.072224
-0.0670357
-0.0629146
-0.0601124
-0.0586864
-0.0584777
-0.059148
-0.0602696
-0.061441
-0.0623741
-0.0629299
-0.0631072
-0.062994
-0.0626942
-0.0623192
-0.0619685
-0.0616997
-0.061504
-0.0613588
0.00392212
0.00352319
0.00288415
0.00211044
0.0012952
0.000410693
-0.000728319
-0.00243098
-0.00508233
-0.00907645
-0.014729
-0.0221961
-0.0314312
-0.0421898
-0.0540728
-0.0665869
-0.0792051
-0.0914174
-0.102768
-0.112881
-0.121468
-0.128329
-0.133341
-0.136441
-0.137647
-0.13702
-0.13463
-0.130625
-0.125188
-0.118549
-0.110996
-0.102881
-0.0946152
-0.086655
-0.0794611
-0.0734341
-0.068838
-0.0657363
-0.0639719
-0.0632123
-0.0630536
-0.063135
-0.0632119
-0.0631776
-0.0630282
-0.0628052
-0.0625714
-0.0623804
-0.0622403
-0.0621396
0.00557832
0.00505017
0.0042759
0.0033375
0.00223943
0.000843473
-0.0011625
-0.00421445
-0.00878975
-0.0152968
-0.0239653
-0.034781
-0.0474827
-0.0616126
-0.0765932
-0.0918077
-0.106668
-0.120662
-0.133381
-0.144526
-0.153901
-0.161395
-0.166949
-0.170545
-0.172227
-0.172092
-0.170186
-0.166585
-0.161376
-0.15466
-0.146563
-0.137258
-0.126989
-0.116104
-0.105068
-0.0944517
-0.0848745
-0.0768955
-0.0708763
-0.0668675
-0.0645911
-0.0635491
-0.0632078
-0.0631527
-0.0631533
-0.0631337
-0.063089
-0.0630422
-0.0629971
-0.0629521
0.00735015
0.00670695
0.0057863
0.00460129
0.0030232
0.000773181
-0.00260081
-0.00763966
-0.014843
-0.0245281
-0.0367314
-0.0511871
-0.0673796
-0.0846381
-0.102242
-0.11951
-0.13587
-0.150881
-0.164242
-0.175771
-0.185382
-0.193054
-0.198795
-0.202621
-0.204595
-0.204842
-0.203399
-0.200307
-0.1956
-0.189296
-0.181406
-0.171945
-0.16096
-0.148582
-0.135087
-0.120952
-0.106887
-0.0937834
-0.0825636
-0.0739351
-0.0681476
-0.0649002
-0.0634915
-0.0631302
-0.0632054
-0.0633869
-0.0635671
-0.063705
-0.0637801
-0.0637946
0.00897961
0.00824037
0.00713786
0.00557327
0.00324953
-0.00026635
-0.00554975
-0.013183
-0.023584
-0.0368657
-0.0527827
-0.0707748
-0.0900766
-0.109852
-0.129316
-0.147816
-0.164879
-0.180199
-0.193615
-0.205068
-0.214565
-0.222153
-0.22788
-0.231783
-0.233928
-0.234441
-0.233357
-0.230705
-0.226503
-0.220744
-0.21339
-0.204373
-0.193606
-0.181023
-0.166641
-0.150659
-0.133569
-0.11624
-0.0998817
-0.0858317
-0.0751608
-0.0682628
-0.0646934
-0.0634249
-0.0633525
-0.0636958
-0.0640945
-0.0644302
-0.0646352
-0.06471
0.0101133
0.00928287
0.00793138
0.00580992
0.00243388
-0.00277311
-0.010459
-0.0211529
-0.0350783
-0.0520504
-0.0714946
-0.0925623
-0.114295
-0.135784
-0.156283
-0.175262
-0.192405
-0.207569
-0.220723
-0.231903
-0.241175
-0.248614
-0.254284
-0.258224
-0.260486
-0.261182
-0.260337
-0.257982
-0.254139
-0.248805
-0.241948
-0.233489
-0.223303
-0.211224
-0.197084
-0.180791
-0.16247
-0.142635
-0.122337
-0.103156
-0.0868857
-0.0749432
-0.0677448
-0.0645266
-0.0638105
-0.0641769
-0.0647724
-0.0653004
-0.0656375
-0.0657756
0.0103223
0.00938654
0.00769494
0.00481774
8.71614e-05
-0.00717961
-0.0176257
-0.0316223
-0.0491032
-0.0695328
-0.0920101
-0.115457
-0.138821
-0.161229
-0.182071
-0.200998
-0.21787
-0.232684
-0.245505
-0.256419
-0.265513
-0.27286
-0.278516
-0.282513
-0.284881
-0.285714
-0.285023
-0.282839
-0.27919
-0.27409
-0.267527
-0.259457
-0.249779
-0.23833
-0.224885
-0.209187
-0.191046
-0.170516
-0.148147
-0.125225
-0.103766
-0.0860605
-0.0737874
-0.0671714
-0.0648944
-0.0649393
-0.065684
-0.0663962
-0.0668737
-0.067087
0.00916192
0.00809544
0.00596196
0.0021417
-0.00418981
-0.0137647
-0.027133
-0.0444162
-0.0651994
-0.0885909
-0.113417
-0.138466
-0.162704
-0.185394
-0.206118
-0.224718
-0.241205
-0.255672
-0.26823
-0.278979
-0.287994
-0.295335
-0.301038
-0.305121
-0.307598
-0.308546
-0.307963
-0.305879
-0.30232
-0.297308
-0.290853
-0.282945
-0.273536
-0.262518
-0.249708
-0.234834
-0.217561
-0.197604
-0.174954
-0.150243
-0.125076
-0.102007
-0.0838353
-0.0723106
-0.0671233
-0.0661488
-0.0668801
-0.0677847
-0.0684269
-0.0687407
0.00625551
0.00502589
0.00235825
-0.00254688
-0.0106276
-0.0225986
-0.0388362
-0.0591497
-0.0827597
-0.10846
-0.134893
-0.160823
-0.185332
-0.207879
-0.228249
-0.246445
-0.26258
-0.276792
-0.2892
-0.299888
-0.30891
-0.316303
-0.322088
-0.326271
-0.328854
-0.329902
-0.32941
-0.327399
-0.323891
-0.318906
-0.312464
-0.304574
-0.295227
-0.284383
-0.271939
-0.257699
-0.241351
-0.222482
-0.200711
-0.175991
-0.149112
-0.122148
-0.098324
-0.0808714
-0.0712381
-0.0681164
-0.0684333
-0.0695272
-0.0703701
-0.0708268
0.00136385
-5.95762e-05
-0.0033251
-0.00938683
-0.0192444
-0.0335318
-0.0523916
-0.0752959
-0.101127
-0.128438
-0.155788
-0.182017
-0.206387
-0.228564
-0.248509
-0.266337
-0.28221
-0.296271
-0.308619
-0.319313
-0.328382
-0.335845
-0.341716
-0.34599
-0.348666
-0.3498
-0.349391
-0.34745
-0.343992
-0.339035
-0.332592
-0.324677
-0.315303
-0.304468
-0.292143
-0.278235
-0.26254
-0.244699
-0.224213
-0.200598
-0.173818
-0.14497
-0.116824
-0.0933914
-0.0780669
-0.071367
-0.0705085
-0.071689
-0.0727802
-0.0734359
-0.00556616
-0.00720451
-0.0110911
-0.0183015
-0.0298443
-0.0462226
-0.0673142
-0.0922645
-0.119674
-0.147944
-0.175646
-0.201762
-0.225755
-0.247479
-0.267021
-0.284558
-0.300257
-0.314241
-0.326578
-0.337299
-0.346417
-0.353941
-0.359878
-0.364223
-0.366972
-0.368177
-0.367843
-0.365972
-0.362576
-0.357665
-0.351248
-0.343335
-0.333937
-0.323069
-0.31074
-0.296938
-0.281578
-0.264443
-0.245112
-0.222974
-0.197446
-0.168602
-0.138106
-0.109727
-0.0882439
-0.0765769
-0.0734244
-0.0743727
-0.075771
-0.0766747
-0.0143869
-0.0162471
-0.0207347
-0.0290125
-0.0420506
-0.0601913
-0.083045
-0.109469
-0.137855
-0.16654
-0.194176
-0.219923
-0.243433
-0.264705
-0.283904
-0.301222
-0.316808
-0.33075
-0.343087
-0.353829
-0.362979
-0.370539
-0.376517
-0.380911
-0.383714
-0.384975
-0.384704
-0.3829
-0.379571
-0.374725
-0.368365
-0.360494
-0.35112
-0.340253
-0.327912
-0.314123
-0.298889
-0.282133
-0.263606
-0.242795
-0.218936
-0.191381
-0.160523
-0.129015
-0.101928
-0.084391
-0.0776411
-0.0777389
-0.0794664
-0.080655
-0.0247706
-0.0268439
-0.031875
-0.0410825
-0.0553615
-0.0748831
-0.0990123
-0.126374
-0.155226
-0.183912
-0.21121
-0.236454
-0.259457
-0.280318
-0.299234
-0.316386
-0.331889
-0.345796
-0.358123
-0.368867
-0.378024
-0.385598
-0.391597
-0.396021
-0.398863
-0.400165
-0.399949
-0.398204
-0.39494
-0.390164
-0.383877
-0.376081
-0.366775
-0.355964
-0.343663
-0.3299
-0.314717
-0.298135
-0.280075
-0.260223
-0.237917
-0.21221
-0.182494
-0.149905
-0.118671
-0.0951862
-0.0836646
-0.0820183
-0.083972
-0.08549
-0.0362557
-0.0385184
-0.0440085
-0.0539753
-0.0692122
-0.0897276
-0.114679
-0.142521
-0.171444
-0.199848
-0.22665
-0.251345
-0.273865
-0.294365
-0.313046
-0.330061
-0.345489
-0.359354
-0.371655
-0.38238
-0.391526
-0.399096
-0.405101
-0.409543
-0.412413
-0.413746
-0.413573
-0.41188
-0.408675
-0.403966
-0.397755
-0.390045
-0.380834
-0.370123
-0.357917
-0.344236
-0.329126
-0.312649
-0.29484
-0.275593
-0.254479
-0.230607
-0.202844
-0.170936
-0.137506
-0.108906
-0.0919234
-0.0875043
-0.0893783
-0.091299
-0.0483062
-0.050722
-0.0565718
-0.0671166
-0.0830316
-0.104184
-0.129571
-0.157533
-0.18625
-0.214201
-0.240441
-0.264594
-0.286674
-0.306861
-0.325342
-0.342233
-0.357583
-0.371393
-0.383652
-0.394345
-0.403467
-0.411024
-0.417026
-0.421478
-0.424369
-0.425725
-0.425588
-0.423936
-0.420782
-0.416133
-0.409993
-0.402368
-0.393259
-0.382667
-0.370592
-0.357048
-0.342066
-0.325712
-0.308076
-0.289197
-0.268897
-0.246542
-0.220924
-0.190865
-0.157187
-0.125022
-0.102615
-0.0944768
-0.0957778
-0.0981944
-0.0603719
-0.0628938
-0.0689995
-0.0799478
-0.0962872
-0.117774
-0.143289
-0.171115
-0.19945
-0.226868
-0.252541
-0.276191
-0.297881
-0.317797
-0.336098
-0.352872
-0.368139
-0.381885
-0.394092
-0.404745
-0.41384
-0.421379
-0.427374
-0.431831
-0.434738
-0.436109
-0.436001
-0.434384
-0.431272
-0.426673
-0.420595
-0.413047
-0.404034
-0.39356
-0.381631
-0.368252
-0.353447
-0.337268
-0.319812
-0.301194
-0.281435
-0.260204
-0.236524
-0.208844
-0.17648
-0.142635
-0.115593
-0.103128
-0.103279
-0.106233
-0.0719379
-0.074515
-0.0807713
-0.091966
-0.108514
-0.130092
-0.155513
-0.183036
-0.210901
-0.237771
-0.262912
-0.286113
-0.307466
-0.327144
-0.345284
-0.361944
-0.377126
-0.390805
-0.402958
-0.413571
-0.422637
-0.43016
-0.436147
-0.440607
-0.443527
-0.444907
-0.444823
-0.443233
-0.440153
-0.435593
-0.429566
-0.422081
-0.413151
-0.402786
-0.390995
-0.377788
-0.363184
-0.347221
-0.329986
-0.311616
-0.292247
-0.271815
-0.2497
-0.224423
-0.194364
-0.160652
-0.13034
-0.11347
-0.111939
-0.115354
-0.0825853
-0.0851235
-0.0914468
-0.102749
-0.11933
-0.140819
-0.165993
-0.193121
-0.220493
-0.246845
-0.271514
-0.29433
-0.315394
-0.334868
-0.352863
-0.369417
-0.384516
-0.398131
-0.410235
-0.420812
-0.429856
-0.437365
-0.443347
-0.447808
-0.450738
-0.452124
-0.452058
-0.450488
-0.447431
-0.4429
-0.436908
-0.429471
-0.420606
-0.41033
-0.39866
-0.385612
-0.371207
-0.35548
-0.3385
-0.320401
-0.301369
-0.281524
-0.260597
-0.237452
-0.210121
-0.177986
-0.146047
-0.12526
-0.121659
-0.125318
-0.0919964
-0.094342
-0.100665
-0.111969
-0.128444
-0.149711
-0.174545
-0.201243
-0.228143
-0.254038
-0.278307
-0.300805
-0.32163
-0.34093
-0.358798
-0.375257
-0.390284
-0.403845
-0.41591
-0.426461
-0.435491
-0.442994
-0.448975
-0.453439
-0.456378
-0.457771
-0.457715
-0.456158
-0.453114
-0.448598
-0.442626
-0.435218
-0.426395
-0.416183
-0.404607
-0.391692
-0.377466
-0.361965
-0.345252
-0.327448
-0.308748
-0.289376
-0.269343
-0.247943
-0.223328
-0.193703
-0.161744
-0.137969
-0.132096
-0.1357
-0.0999226
-0.10194
-0.108156
-0.119382
-0.135649
-0.156599
-0.181041
-0.207312
-0.23379
-0.259302
-0.283252
-0.305499
-0.326134
-0.345293
-0.363056
-0.379436
-0.394407
-0.407928
-0.419969
-0.430509
-0.439537
-0.447046
-0.453033
-0.457504
-0.460452
-0.461857
-0.461806
-0.460257
-0.457215
-0.4527
-0.446729
-0.439326
-0.430519
-0.420339
-0.408822
-0.396003
-0.381919
-0.366614
-0.350151
-0.332643
-0.314279
-0.295327
-0.275989
-0.255958
-0.233777
-0.207097
-0.176446
-0.150847
-0.142706
-0.145961
-0.106197
-0.107798
-0.113763
-0.124838
-0.140828
-0.1614
-0.185425
-0.211287
-0.2374
-0.262609
-0.286318
-0.308378
-0.328869
-0.347919
-0.365602
-0.381925
-0.396859
-0.410362
-0.422399
-0.432946
-0.441989
-0.449516
-0.455522
-0.460008
-0.462969
-0.464385
-0.464336
-0.462792
-0.459742
-0.455213
-0.449225
-0.441803
-0.432981
-0.422798
-0.411298
-0.398528
-0.384537
-0.369378
-0.353123
-0.335882
-0.317841
-0.29928
-0.280509
-0.261538
-0.241395
-0.217694
-0.189285
-0.163047
-0.152852
-0.15553
-0.110754
-0.11188
-0.117446
-0.128275
-0.143927
-0.16407
-0.187652
-0.213122
-0.238927
-0.263915
-0.287469
-0.309417
-0.329823
-0.348805
-0.366436
-0.382727
-0.397648
-0.411155
-0.42321
-0.433785
-0.44286
-0.450419
-0.456453
-0.460956
-0.463924
-0.465345
-0.465293
-0.463752
-0.460687
-0.45613
-0.450105
-0.44264
-0.433772
-0.423548
-0.412023
-0.399252
-0.385296
-0.370221
-0.35411
-0.337081
-0.319319
-0.30111
-0.28282
-0.264675
-0.246165
-0.225214
-0.199571
-0.173752
-0.161903
-0.163866
-0.113619
-0.11424
-0.119271
-0.129741
-0.14499
-0.164647
-0.187749
-0.212821
-0.238348
-0.263169
-0.286634
-0.308534
-0.328909
-0.347867
-0.365484
-0.381777
-0.396718
-0.410263
-0.42237
-0.433006
-0.442145
-0.449769
-0.455862
-0.460414
-0.46342
-0.464863
-0.464786
-0.463215
-0.460099
-0.455477
-0.449374
-0.441825
-0.432875
-0.422572
-0.410975
-0.398149
-0.384166
-0.369105
-0.353062
-0.336167
-0.318615
-0.300697
-0.282811
-0.265316
-0.24808
-0.229506
-0.206811
-0.182249
-0.169288
-0.170487
-0.114901
-0.115019
-0.119394
-0.129364
-0.144125
-0.163227
-0.185792
-0.210436
-0.235689
-0.260377
-0.283804
-0.305712
-0.326106
-0.345084
-0.362725
-0.379051
-0.394042
-0.407655
-0.419844
-0.43057
-0.439802
-0.447515
-0.453688
-0.458307
-0.461363
-0.462845
-0.462771
-0.46118
-0.458014
-0.453315
-0.447115
-0.439448
-0.430359
-0.419908
-0.408164
-0.395204
-0.381116
-0.36599
-0.34993
-0.333079
-0.315645
-0.297933
-0.280363
-0.263378
-0.247119
-0.230505
-0.210681
-0.187968
-0.174509
-0.174976
-0.114777
-0.114428
-0.118049
-0.127348
-0.141497
-0.159948
-0.181891
-0.206044
-0.230991
-0.25555
-0.278971
-0.300933
-0.321397
-0.340441
-0.358146
-0.374543
-0.38962
-0.403336
-0.415642
-0.426493
-0.435851
-0.443683
-0.449964
-0.454673
-0.457797
-0.459325
-0.459258
-0.457646
-0.454422
-0.44963
-0.443309
-0.435493
-0.426233
-0.415592
-0.403645
-0.390479
-0.376189
-0.36088
-0.344681
-0.327759
-0.310336
-0.292725
-0.275369
-0.258764
-0.243245
-0.228182
-0.210992
-0.190477
-0.17714
-0.176966
-0.113476
-0.11273
-0.115536
-0.123968
-0.137336
-0.155003
-0.176197
-0.199747
-0.224309
-0.248702
-0.272118
-0.294163
-0.314741
-0.3339
-0.351716
-0.368229
-0.383433
-0.397294
-0.409759
-0.420777
-0.430301
-0.43829
-0.444712
-0.44954
-0.452753
-0.454339
-0.454285
-0.452652
-0.449365
-0.444465
-0.437997
-0.429999
-0.420522
-0.409636
-0.397421
-0.383972
-0.369394
-0.353806
-0.337352
-0.320214
-0.302647
-0.285001
-0.267741
-0.251389
-0.236409
-0.22253
-0.207644
-0.189468
-0.176812
-0.176135
-0.11126
-0.110218
-0.112194
-0.119562
-0.131932
-0.148633
-0.168907
-0.191688
-0.215727
-0.23986
-0.263231
-0.285364
-0.306089
-0.325412
-0.343392
-0.360073
-0.375456
-0.389509
-0.402181
-0.413413
-0.423149
-0.43134
-0.437942
-0.442921
-0.446252
-0.447914
-0.447893
-0.446238
-0.442886
-0.437867
-0.43123
-0.423016
-0.413279
-0.40209
-0.389538
-0.375721
-0.360756
-0.344774
-0.327936
-0.31045
-0.292595
-0.274754
-0.257433
-0.24119
-0.22657
-0.21355
-0.200599
-0.184735
-0.173203
-0.172184
-0.10841
-0.107185
-0.108367
-0.114504
-0.125627
-0.141128
-0.16026
-0.18205
-0.205361
-0.229078
-0.252309
-0.274496
-0.295384
-0.314917
-0.333121
-0.350033
-0.365657
-0.379963
-0.392899
-0.404401
-0.414402
-0.422844
-0.429673
-0.434845
-0.438327
-0.440093
-0.440124
-0.438454
-0.43504
-0.429896
-0.42307
-0.414609
-0.404568
-0.39302
-0.380058
-0.365786
-0.350328
-0.33383
-0.316471
-0.298482
-0.280179
-0.261983
-0.244446
-0.228161
-0.213723
-0.201263
-0.189866
-0.176157
-0.166026
-0.164833
-0.105193
-0.103898
-0.104376
-0.109179
-0.118801
-0.132822
-0.150533
-0.171051
-0.193363
-0.216433
-0.239364
-0.261525
-0.282564
-0.302343
-0.320837
-0.338056
-0.353999
-0.368634
-0.381906
-0.393745
-0.404076
-0.412828
-0.419937
-0.425351
-0.429026
-0.430929
-0.431038
-0.42937
-0.4259
-0.420627
-0.413597
-0.404861
-0.394474
-0.38251
-0.369064
-0.354247
-0.338188
-0.321045
-0.303019
-0.284369
-0.265448
-0.246725
-0.228802
-0.212324
-0.197927
-0.185742
-0.175503
-0.163695
-0.155036
-0.153808
-0.101844
-0.100577
-0.100484
-0.10394
-0.111849
-0.12408
-0.140039
-0.158944
-0.179918
-0.202035
-0.224432
-0.246423
-0.267561
-0.287605
-0.306454
-0.324072
-0.340431
-0.355492
-0.369191
-0.381451
-0.39219
-0.401324
-0.408779
-0.414492
-0.41841
-0.420492
-0.420709
-0.419066
-0.415553
-0.410151
-0.402907
-0.393871
-0.3831
-0.370666
-0.356664
-0.341208
-0.324437
-0.306521
-0.28768
-0.268207
-0.248498
-0.229074
-0.210594
-0.193755
-0.17925
-0.167137
-0.157642
-0.14739
-0.140045
-0.138854
-0.09855
-0.0973785
-0.0968772
-0.0990804
-0.105148
-0.11529
-0.129121
-0.146013
-0.165243
-0.186029
-0.207577
-0.229184
-0.250313
-0.270612
-0.289875
-0.30799
-0.324885
-0.340493
-0.354735
-0.367525
-0.378768
-0.388372
-0.396252
-0.402333
-0.406552
-0.408862
-0.409229
-0.407641
-0.404103
-0.398581
-0.391116
-0.381762
-0.37057
-0.357614
-0.342986
-0.326804
-0.309211
-0.290394
-0.270596
-0.250145
-0.229484
-0.209192
-0.189989
-0.172627
-0.157832
-0.145652
-0.13648
-0.127364
-0.12095
-0.119741
-0.0954404
-0.0944052
-0.0936649
-0.0948011
-0.0990203
-0.106829
-0.118142
-0.132567
-0.149586
-0.168592
-0.188904
-0.209837
-0.230787
-0.251284
-0.270998
-0.289712
-0.307277
-0.323579
-0.338511
-0.351965
-0.363835
-0.374018
-0.382417
-0.388948
-0.393541
-0.396139
-0.396703
-0.395208
-0.391671
-0.386042
-0.378358
-0.36867
-0.35703
-0.343505
-0.328188
-0.311197
-0.292684
-0.27285
-0.251964
-0.230394
-0.208633
-0.187324
-0.167247
-0.149201
-0.133941
-0.121522
-0.112283
-0.103802
-0.0977425
-0.0962314
-0.0925932
-0.0917125
-0.0908868
-0.0912019
-0.0936913
-0.0990255
-0.107454
-0.118929
-0.133218
-0.14994
-0.168566
-0.188468
-0.209001
-0.229585
-0.249751
-0.26915
-0.287526
-0.304688
-0.320479
-0.334761
-0.347408
-0.358303
-0.367338
-0.37442
-0.379472
-0.38243
-0.383248
-0.381896
-0.378389
-0.372675
-0.364781
-0.354754
-0.342644
-0.328515
-0.312457
-0.294591
-0.275077
-0.254132
-0.232054
-0.209251
-0.186273
-0.163822
-0.142737
-0.123856
-0.107952
-0.095037
-0.0854067
-0.0769327
-0.0704729
-0.0679851
-0.0900407
-0.0893228
-0.0885345
-0.0882872
-0.0892627
-0.092104
-0.0973569
-0.105407
-0.116422
-0.130322
-0.146773
-0.165239
-0.185061
-0.205563
-0.226134
-0.246272
-0.265584
-0.283775
-0.300613
-0.31591
-0.329509
-0.341272
-0.351081
-0.358834
-0.364446
-0.367848
-0.368992
-0.367842
-0.364402
-0.358637
-0.350552
-0.340191
-0.327604
-0.312853
-0.296025
-0.277244
-0.25668
-0.234567
-0.211232
-0.187127
-0.162852
-0.139168
-0.116961
-0.0970962
-0.0803376
-0.0666188
-0.0562815
-0.0470246
-0.039344
-0.034602
-0.0877742
-0.0872321
-0.0865714
-0.0859857
-0.0856957
-0.0861317
-0.0880305
-0.0922515
-0.0994745
-0.110017
-0.1238
-0.140408
-0.159193
-0.179399
-0.200278
-0.221162
-0.241504
-0.260873
-0.278939
-0.295443
-0.310181
-0.322987
-0.333727
-0.342286
-0.348575
-0.352522
-0.354073
-0.353193
-0.349876
-0.344101
-0.335859
-0.325189
-0.312141
-0.296776
-0.279183
-0.259488
-0.237871
-0.214587
-0.18999
-0.164569
-0.138971
-0.113997
-0.0905642
-0.0695428
-0.0516688
-0.0367974
-0.0253773
-0.0144074
-0.00499397
0.00397635
-0.085737
-0.0854007
-0.0849375
-0.0841651
-0.0828109
-0.0809784
-0.079473
-0.0795975
-0.0826134
-0.0893337
-0.100002
-0.11436
-0.131789
-0.151466
-0.172513
-0.194099
-0.21551
-0.236164
-0.255608
-0.273492
-0.289549
-0.303573
-0.315404
-0.324914
-0.332007
-0.336608
-0.338662
-0.338132
-0.335007
-0.329283
-0.320937
-0.310008
-0.296546
-0.280616
-0.262309
-0.241757
-0.219152
-0.194765
-0.168975
-0.142298
-0.115405
-0.0891143
-0.0643355
-0.0419136
-0.0225377
-0.00602127
0.00707051
0.0208187
0.0317345
0.0475612
-0.083808
-0.0837325
-0.083525
-0.0826216
-0.0802895
-0.0763037
-0.071457
-0.0674129
-0.0660075
-0.068605
-0.0758346
-0.0876367
-0.103441
-0.122373
-0.143432
-0.165633
-0.188094
-0.210076
-0.23099
-0.250379
-0.267898
-0.283289
-0.296356
-0.306955
-0.314977
-0.320345
-0.323003
-0.322915
-0.320067
-0.314469
-0.3061
-0.294993
-0.281206
-0.264809
-0.245898
-0.224617
-0.201166
-0.175832
-0.149004
-0.121207
-0.0931033
-0.0654818
-0.0391962
-0.0150119
0.00647126
0.0254968
0.0414692
0.0594512
0.0717826
0.0982368
-0.0817927
-0.0820447
-0.082126
-0.0810365
-0.0776707
-0.0715837
-0.0635497
-0.0554954
-0.049744
-0.0481889
-0.0518719
-0.0609683
-0.0749843
-0.0930075
-0.113934
-0.136635
-0.160074
-0.183356
-0.205755
-0.226701
-0.245762
-0.262614
-0.277023
-0.288816
-0.297872
-0.304108
-0.307468
-0.30792
-0.305447
-0.300067
-0.291779
-0.280614
-0.266635
-0.249923
-0.230587
-0.208778
-0.184708
-0.158665
-0.131036
-0.102316
-0.0731184
-0.044144
-0.0161255
0.0103197
0.0347574
0.0576181
0.0785106
0.103281
0.120276
0.163316
-0.0794774
-0.0800851
-0.0804524
-0.0790125
-0.0744137
-0.0662035
-0.0552241
-0.0435633
-0.0338814
-0.0284958
-0.0288265
-0.0352965
-0.0475139
-0.0645569
-0.085241
-0.10832
-0.132618
-0.157103
-0.180919
-0.203384
-0.223978
-0.242309
-0.258094
-0.271133
-0.281286
-0.288461
-0.292603
-0.293681
-0.291687
-0.286633
-0.278549
-0.26747
-0.253474
-0.236653
-0.217128
-0.195057
-0.170656
-0.144202
-0.116048
-0.086626
-0.0564419
-0.0260424
0.00403807
0.0334126
0.0619004
0.0902512
0.118471
0.153651
0.183426
0.248108
-0.0769659
-0.077815
-0.0783133
-0.0762683
-0.070219
-0.0597909
-0.0461223
-0.0314645
-0.018586
-0.0100487
-0.00755865
-0.0117532
-0.0223545
-0.0384625
-0.0588511
-0.0821906
-0.107198
-0.132726
-0.157808
-0.181663
-0.203686
-0.22342
-0.240535
-0.254796
-0.266046
-0.274183
-0.279149
-0.280918
-0.27949
-0.274883
-0.267134
-0.256294
-0.24246
-0.225749
-0.206289
-0.184237
-0.159797
-0.133216
-0.104788
-0.074841
-0.0437205
-0.0117425
0.0208645
0.0540938
0.0881899
0.124344
0.16287
0.212525
0.260024
0.338587
-0.0755437
-0.0762421
-0.0763707
-0.0731469
-0.065267
-0.0526143
-0.0365337
-0.0195353
-0.00439668
0.00638023
0.0108968
0.00837127
-0.000995756
-0.016343
-0.0364462
-0.0599387
-0.0854712
-0.111817
-0.137926
-0.162938
-0.186179
-0.207134
-0.225429
-0.240799
-0.253064
-0.262115
-0.267889
-0.270365
-0.269549
-0.265475
-0.258198
-0.24776
-0.234249
-0.21781
-0.198593
-0.176756
-0.152475
-0.125949
-0.0973934
-0.0670071
-0.0349316
-0.00117428
0.0344961
0.0727462
0.114743
0.162816
0.218034
0.289156
0.349519
0.424486
-0.0797166
-0.0790177
-0.0774096
-0.0718005
-0.0612533
-0.0460138
-0.0276863
-0.00887279
0.00764618
0.0196584
0.0253984
0.0238647
0.0152444
0.000376391
-0.0195398
-0.0431355
-0.0690337
-0.0959639
-0.122824
-0.1487
-0.172867
-0.194768
-0.213993
-0.230252
-0.243348
-0.253161
-0.259626
-0.262723
-0.262463
-0.258888
-0.25206
-0.242068
-0.228991
-0.212909
-0.193981
-0.172385
-0.148284
-0.121832
-0.0931613
-0.062334
-0.0292662
0.00640674
0.0455335
0.0898284
0.14221
0.2079
0.291693
0.403609
0.495867
0.603443
-0.103149
-0.0953299
-0.0868849
-0.0760968
-0.061733
-0.0434001
-0.0227427
-0.00233954
0.015361
0.0281476
0.03433
0.0332206
0.0250106
0.0104899
-0.00918735
-0.0326868
-0.0586472
-0.0857939
-0.113005
-0.13934
-0.16404
-0.186518
-0.206338
-0.223187
-0.236853
-0.247206
-0.254173
-0.257733
-0.257897
-0.254709
-0.248233
-0.238556
-0.225776
-0.210002
-0.19136
-0.16999
-0.14604
-0.119637
-0.0908425
-0.0595957
-0.0255944
0.0119047
0.0544167
0.104862
0.168368
0.254429
0.375719
0.55576
0.767718
1.10787
-0.189985
-0.112231
-0.0806438
-0.0714153
-0.0581369
-0.0387614
-0.017061
0.0039498
0.0217611
0.0341969
0.0398515
0.0382414
0.0296385
0.0148621
-0.00494104
-0.0284728
-0.0544179
-0.0815406
-0.108746
-0.135107
-0.159872
-0.182451
-0.202402
-0.219406
-0.233244
-0.243778
-0.250933
-0.254683
-0.255038
-0.252039
-0.245752
-0.236259
-0.223662
-0.208069
-0.189602
-0.168392
-0.144573
-0.118243
-0.0894063
-0.0579047
-0.0232721
0.0155154
0.0604497
0.115273
0.186544
0.286606
0.435349
0.680405
1.0794
1.82855
)
;

boundaryField
{
    movingWall
    {
        type            zeroGradient;
    }
    fixedWalls
    {
        type            zeroGradient;
    }
    frontAndBack
    {
        type            empty;
    }
}


// ************************************************************************* //
