/*--------------------------------*- C++ -*----------------------------------*\
  =========                 |
  \\      /  F ield         | OpenFOAM: The Open Source CFD Toolbox
   \\    /   O peration     | Website:  https://openfoam.org
    \\  /    A nd           | Version:  7
     \\/     M anipulation  |
\*---------------------------------------------------------------------------*/
FoamFile
{
    version     2.0;
    format      ascii;
    class       surfaceScalarField;
    location    "1850";
    object      phi;
}
// * * * * * * * * * * * * * * * * * * * * * * * * * * * * * * * * * * * * * //

dimensions      [0 3 -1 0 0 0 0];

internalField   nonuniform List<scalar> 
4900
(
1.70019e-06
-1.70333e-06
6.2241e-06
-4.52393e-06
1.17166e-05
-5.49254e-06
1.65026e-05
-4.78593e-06
1.97499e-05
-3.24739e-06
2.1389e-05
-1.63909e-06
2.17675e-05
-3.78517e-07
2.1262e-05
5.05494e-07
2.00157e-05
1.24628e-06
1.78647e-05
2.15101e-06
1.44157e-05
3.44891e-06
9.18202e-06
5.23366e-06
1.6725e-06
7.5095e-06
-8.56482e-06
1.02373e-05
-2.18793e-05
1.33144e-05
-3.84337e-05
1.65543e-05
-5.8132e-05
1.96984e-05
-8.05388e-05
2.24067e-05
-0.000104815
2.42764e-05
-0.000129705
2.48892e-05
-0.000153579
2.38744e-05
-0.000174552
2.09729e-05
-0.000190642
1.60897e-05
-0.000199974
9.33217e-06
-0.000201028
1.05443e-06
-0.000192864
-8.16417e-06
-0.000175237
-1.76265e-05
-0.000148671
-2.65664e-05
-0.000114459
-3.42114e-05
-7.46284e-05
-3.98307e-05
-3.18303e-05
-4.2798e-05
1.0819e-05
-4.26492e-05
5.0063e-05
-3.92439e-05
8.30513e-05
-3.29883e-05
0.000107609
-2.45576e-05
0.000122472
-1.48635e-05
0.000127529
-5.05648e-06
0.000123861
3.66776e-06
0.000113467
1.03938e-05
9.87394e-05
1.4728e-05
8.20202e-05
1.67192e-05
6.52469e-05
1.67733e-05
4.97646e-05
1.54823e-05
3.63068e-05
1.34578e-05
2.51006e-05
1.12062e-05
1.6038e-05
9.06261e-06
8.89206e-06
7.1459e-06
3.59354e-06
5.2985e-06
5.0493e-07
3.0886e-06
5.04928e-07
4.47511e-06
-6.17845e-06
1.3849e-05
-1.38979e-05
2.4311e-05
-1.59546e-05
3.28993e-05
-1.33743e-05
3.8002e-05
-8.35015e-06
3.92287e-05
-2.86581e-06
3.68611e-05
1.98902e-06
3.12062e-05
6.16043e-06
2.21558e-05
1.02966e-05
9.08218e-06
1.52245e-05
-9.01167e-06
2.15427e-05
-3.32264e-05
2.94483e-05
-6.44617e-05
3.87447e-05
-0.000103157
4.89325e-05
-0.000149083
5.924e-05
-0.000201178
6.86502e-05
-0.000257498
7.60177e-05
-0.000315331
8.02394e-05
-0.00037148
8.04257e-05
-0.00042261
7.60197e-05
-0.000465583
6.68472e-05
-0.00049772
5.31094e-05
-0.000516968
3.5338e-05
-0.000521986
1.43507e-05
-0.000512228
-8.70375e-06
-0.000487786
-3.26065e-05
-0.000449299
-5.61133e-05
-0.000397972
-7.78928e-05
-0.000335633
-9.65508e-05
-0.000264753
-0.00011071
-0.000188427
-0.000119124
-0.000110231
-0.000120846
-3.40442e-05
-0.00011543
3.60592e-05
-0.000103092
9.6389e-05
-8.48873e-05
0.00014413
-6.26049e-05
0.000177361
-3.82875e-05
0.000195293
-1.4264e-05
0.000198521
7.16646e-06
0.000189142
2.41063e-05
0.000170307
3.55542e-05
0.000145607
4.14738e-05
0.00011845
4.26392e-05
9.16016e-05
4.03058e-05
6.69287e-05
3.58791e-05
4.54176e-05
3.05737e-05
2.74581e-05
2.51054e-05
1.33342e-05
1.94223e-05
3.7551e-06
1.26677e-05
4.26002e-06
5.98737e-06
-1.21658e-05
1.73374e-05
-2.52479e-05
2.8802e-05
-2.74192e-05
3.6823e-05
-2.13953e-05
3.95387e-05
-1.10659e-05
3.63605e-05
3.12408e-07
2.72252e-05
1.11242e-05
1.19259e-05
2.14597e-05
-1.03022e-05
3.25246e-05
-4.07359e-05
4.56582e-05
-8.07347e-05
6.15415e-05
-0.000131222
7.99355e-05
-0.000192263
9.97855e-05
-0.000262754
0.000119423
-0.000340349
0.000136835
-0.000421691
0.000149992
-0.000502864
0.000157191
-0.000579916
0.000157292
-0.000649303
0.000149813
-0.000708159
0.000134875
-0.000754398
0.000113086
-0.00078667
8.53811e-05
-0.000804211
5.28803e-05
-0.000806664
1.68034e-05
-0.00079389
-2.14779e-05
-0.000765914
-6.05823e-05
-0.000723052
-9.89755e-05
-0.000666029
-0.000134916
-0.000596079
-0.000166501
-0.000515054
-0.000191735
-0.000425482
-0.000208696
-0.000330557
-0.00021577
-0.000234061
-0.000211926
-0.00014013
-0.000197022
-5.29965e-05
-0.000172021
2.3377e-05
-0.000138979
8.602e-05
-0.000100931
0.000133141
-6.13851e-05
0.000163774
-2.34663e-05
0.000178062
9.81821e-06
0.000177544
3.60722e-05
0.000165023
5.39946e-05
0.000144048
6.36143e-05
0.0001183
6.60533e-05
9.10404e-05
6.31388e-05
6.47421e-05
5.68719e-05
4.10639e-05
4.87836e-05
2.12069e-05
3.92793e-05
6.60683e-06
2.72677e-05
1.08669e-05
6.50879e-06
-1.86746e-05
1.75976e-05
-3.63367e-05
2.69534e-05
-3.6775e-05
3.07614e-05
-2.52034e-05
2.72156e-05
-7.52015e-06
1.56228e-05
1.19052e-05
-4.55225e-06
3.12992e-05
-3.43232e-05
5.12306e-05
-7.5213e-05
7.34143e-05
-0.000128698
9.91435e-05
-0.00019551
0.000128353
-0.000275067
0.000159493
-0.000365246
0.000189964
-0.000462558
0.000216736
-0.000562691
0.000236968
-0.000661196
0.000248497
-0.000754099
0.000250093
-0.000838262
0.000241455
-0.000911469
0.000223021
-0.000972314
0.00019572
-0.00101998
0.000160749
-0.00105397
0.000119375
-0.00107393
7.28408e-05
-0.00107953
2.24015e-05
-0.0010704
-3.06126e-05
-0.00104623
-8.4747e-05
-0.00100687
-0.00013834
-0.000952359
-0.000189423
-0.000883138
-0.000235722
-0.000800147
-0.000274726
-0.000705009
-0.000303834
-0.000600205
-0.000320574
-0.000489159
-0.000322973
-0.00037615
-0.000310031
-0.000266011
-0.00028216
-0.000163592
-0.000241397
-7.32102e-05
-0.000191313
1.86265e-06
-0.000136458
6.00534e-05
-8.16572e-05
0.000101059
-3.11871e-05
0.000125133
1.19973e-05
0.000133569
4.5559e-05
0.000128872
6.83117e-05
0.000114338
8.05874e-05
9.35499e-05
8.39264e-05
6.98706e-05
8.05511e-05
4.6116e-05
7.25382e-05
2.4636e-05
6.07593e-05
7.92817e-06
4.39756e-05
1.8795e-05
6.20584e-06
-2.48805e-05
1.48976e-05
-4.50285e-05
1.92103e-05
-4.10877e-05
1.5483e-05
-2.14761e-05
2.16878e-06
5.79401e-06
-2.16161e-05
3.56901e-05
-5.70484e-05
6.67314e-05
-0.000105854
0.000100036
-0.000169657
0.000137218
-0.000249021
0.000178507
-0.000342762
0.000222094
-0.000447864
0.000264595
-0.000559947
0.000302046
-0.000674067
0.000330856
-0.000785548
0.000348449
-0.00089057
0.000353519
-0.000986407
0.000345931
-0.00107134
0.000326387
-0.0011444
0.00029608
-0.00120511
0.000256432
-0.00125324
0.000208881
-0.00128862
0.000154754
-0.00131109
9.53115e-05
-0.00132052
3.18281e-05
-0.00131665
-3.44832e-05
-0.00129909
-0.000102307
-0.00126734
-0.000170094
-0.00122085
-0.000235914
-0.00115911
-0.000297459
-0.00108182
-0.000352011
-0.00098921
-0.000396448
-0.000882379
-0.000427404
-0.000763643
-0.000441709
-0.000636699
-0.000436976
-0.000506602
-0.000412256
-0.000379383
-0.000368617
-0.000261245
-0.00030945
-0.000157488
-0.000240215
-7.1636e-05
-0.000167509
-5.12706e-06
-9.76961e-05
4.25811e-05
-3.5711e-05
7.27334e-05
1.54066e-05
8.69334e-05
5.41117e-05
8.77092e-05
7.98116e-05
7.82697e-05
9.33658e-05
6.21273e-05
9.66935e-05
4.27425e-05
9.1923e-05
2.34093e-05
8.00924e-05
7.60354e-06
5.97814e-05
2.63986e-05
4.89954e-06
-2.978e-05
8.88443e-06
-4.90134e-05
5.29743e-06
-3.75007e-05
-8.91167e-06
-7.267e-06
-3.50873e-05
3.19696e-05
-7.43919e-05
7.49946e-05
-0.000128544
0.000120883
-0.000199292
0.000170784
-0.000287194
0.00022512
-0.000390729
0.000282042
-0.000506252
0.000337617
-0.000628701
0.000387044
-0.00075263
0.000425975
-0.000873128
0.000451355
-0.000986394
0.000461714
-0.00108987
0.000456994
-0.00118206
0.000438127
-0.00126227
0.000406589
-0.00133028
0.000364098
-0.00138626
0.000312408
-0.0014305
0.000253119
-0.00146339
0.000187647
-0.00148539
0.000117308
-0.00149684
4.32775e-05
-0.0014978
-3.35194e-05
-0.00148801
-0.0001121
-0.00146687
-0.000191232
-0.00143338
-0.000269406
-0.00138612
-0.000344716
-0.0013235
-0.000414631
-0.00124408
-0.000475865
-0.001147
-0.000524488
-0.00103245
-0.000556256
-0.0009023
-0.00056713
-0.000760503
-0.000554053
-0.0006132
-0.00051592
-0.000468178
-0.000454472
-0.000333693
-0.0003747
-0.000216807
-0.000284396
-0.000121824
-0.000192679
-4.97005e-05
-0.000107834
1.20012e-06
-3.54941e-05
3.34795e-05
2.18323e-05
4.96891e-05
6.3602e-05
5.27881e-05
9.02668e-05
4.61908e-05
0.000103291
3.36001e-05
0.000104514
1.88767e-05
9.48158e-05
6.11505e-06
7.2543e-05
3.25136e-05
2.27661e-06
-3.20566e-05
-9.07965e-07
-4.58288e-05
-1.49934e-05
-2.34153e-05
-4.21723e-05
1.99119e-05
-8.36276e-05
7.34249e-05
-0.000140793
0.00013216
-0.00021537
0.00019546
-0.000308038
0.000263452
-0.000417261
0.000334343
-0.000539097
0.000403879
-0.000668001
0.00046652
-0.000798038
0.000517082
-0.000923939
0.000551875
-0.00104168
0.000569097
-0.00114861
0.000568643
-0.00124325
0.000551633
-0.00132501
0.000519888
-0.00139397
0.000475548
-0.00145071
0.000420837
-0.00149613
0.000357834
-0.00153133
0.000288319
-0.00155749
0.000213805
-0.00157571
0.000135522
-0.00158676
5.43319e-05
-0.00159109
-2.91875e-05
-0.00158875
-0.000114448
-0.00157923
-0.000200745
-0.00156136
-0.000287284
-0.00153324
-0.000372833
-0.00149245
-0.000455416
-0.00143617
-0.000532149
-0.00136146
-0.000599197
-0.00126592
-0.000651798
-0.0011485
-0.000684548
-0.00101042
-0.000692136
-0.000855851
-0.000670486
-0.00069221
-0.000618113
-0.000529538
-0.000537373
-0.00037885
-0.000435084
-0.000249627
-0.000321902
-0.000147344
-0.000210117
-7.24606e-05
-0.000110378
-2.16701e-05
-2.89583e-05
9.3494e-06
3.25825e-05
2.44556e-05
7.51606e-05
2.74325e-05
0.000100314
2.22373e-05
0.000109709
1.30503e-05
0.000104003
4.21417e-06
8.13791e-05
3.67278e-05
-1.9141e-06
-3.01425e-05
-1.46449e-05
-3.3098e-05
-4.1309e-05
3.24888e-06
-8.31981e-05
6.18009e-05
-0.000141324
0.000131551
-0.000217085
0.000207922
-0.000311266
0.00028964
-0.000422585
0.000374771
-0.000547153
0.000458912
-0.000679167
0.000535892
-0.00081224
0.000599592
-0.000940609
0.000645451
-0.00105983
0.000671092
-0.00116693
0.0006762
-0.00126029
0.000662005
-0.00133937
0.000630714
-0.0014045
0.000585012
-0.00145668
0.00052773
-0.00149742
0.000461575
-0.00152845
0.000388873
-0.00155162
0.000311485
-0.00156866
0.000230838
-0.00158099
0.000147855
-0.00158967
6.30134e-05
-0.00159545
-2.34075e-05
-0.00159865
-0.00011125
-0.00159898
-0.000200412
-0.00159549
-0.000290774
-0.00158652
-0.000381805
-0.00156956
-0.000472373
-0.00154117
-0.000560545
-0.00149708
-0.000643281
-0.00143274
-0.000716142
-0.00134401
-0.000773275
-0.00122831
-0.000807834
-0.0010859
-0.000812896
-0.000921078
-0.00078294
-0.000742699
-0.000715752
-0.000563519
-0.000614263
-0.000397913
-0.000487508
-0.000258273
-0.000349757
-0.000151367
-0.000217285
-7.68326e-05
-0.000103492
-2.92049e-05
-1.50453e-05
-2.05519e-06
4.80109e-05
9.98681e-06
8.82719e-05
1.17385e-05
0.000107957
7.79565e-06
0.000107946
2.60223e-06
8.65725e-05
3.933e-05
-7.74053e-06
-2.2402e-05
-3.18881e-05
-8.95046e-06
-7.24803e-05
4.38411e-05
-0.000129776
0.000119097
-0.000204597
0.000206372
-0.000297674
0.000300999
-0.000408118
0.000400084
-0.000532421
0.000499074
-0.000664812
0.000591303
-0.00079856
0.00066964
-0.000927351
0.000728384
-0.00104617
0.000764267
-0.00115159
0.000776512
-0.00124172
0.000766335
-0.00131602
0.000736299
-0.00137502
0.000689717
-0.00142016
0.000630155
-0.00145348
0.00056105
-0.00147729
0.000485387
-0.00149392
0.000405497
-0.0015055
0.000323063
-0.00151382
0.000239166
-0.00152028
0.000154312
-0.00152593
6.86593e-05
-0.00153154
-1.77953e-05
-0.00153752
-0.00010527
-0.00154387
-0.000194057
-0.00155023
-0.000284421
-0.00155562
-0.000376411
-0.0015582
-0.00046979
-0.00155498
-0.000563768
-0.0015417
-0.000656559
-0.00151292
-0.000744928
-0.00146236
-0.000823834
-0.00138391
-0.000886286
-0.00127311
-0.00092369
-0.00112907
-0.000926986
-0.000956131
-0.000888689
-0.000764819
-0.000805575
-0.000571025
-0.000681302
-0.000392966
-0.000527816
-0.000246173
-0.000364077
-0.000138384
-0.000211281
-6.76912e-05
-8.57378e-05
-2.58854e-05
6.2051e-06
-4.30319e-06
6.66897e-05
3.87585e-06
9.97781e-05
4.28517e-06
0.000107536
1.71561e-06
8.91421e-05
4.10456e-05
-1.49306e-05
-7.47142e-06
-5.16561e-05
2.77751e-05
-0.000106475
9.86595e-05
-0.000178712
0.000191334
-0.000268719
0.000296379
-0.000375957
0.000408237
-0.00049756
0.000521687
-0.000628133
0.000629647
-0.000760822
0.000723992
-0.000888807
0.000797626
-0.00100642
0.000846001
-0.00110968
0.000867521
-0.00119632
0.000863149
-0.00126569
0.000835705
-0.00131852
0.000789136
-0.00135665
0.000727843
-0.0013826
0.000656109
-0.00139921
0.000577658
-0.0014092
0.000495376
-0.00141495
0.000411248
-0.00141838
0.000326485
-0.00142087
0.000241656
-0.00142343
0.000156878
-0.00142682
7.20483e-05
-0.00143155
-1.30721e-05
-0.00143795
-9.88617e-05
-0.00144631
-0.000185696
-0.00145679
-0.00027394
-0.00146923
-0.000363974
-0.00148287
-0.000456156
-0.00149603
-0.000550601
-0.00150575
-0.000646846
-0.00150729
-0.000743389
-0.00149407
-0.000837053
-0.00145807
-0.000922278
-0.00139104
-0.000990723
-0.00128643
-0.0010316
-0.00114195
-0.00103316
-0.000962091
-0.000985439
-0.000759347
-0.000884046
-0.000553297
-0.000733865
-0.000366415
-0.000550959
-0.000217183
-0.000360514
-0.000113327
-0.000189593
-5.01773e-05
-5.6945e-05
-1.633e-05
3.28424e-05
-1.28439e-06
8.47326e-05
2.75112e-06
0.000103501
1.64911e-06
9.02441e-05
4.26947e-05
-2.29855e-05
1.55141e-05
-7.24399e-05
7.72295e-05
-0.0001407
0.000166919
-0.000226253
0.000276887
-0.000328576
0.000398703
-0.000445545
0.000525206
-0.000572496
0.000648637
-0.000702792
0.000759944
-0.00082928
0.00085048
-0.000945649
0.000913995
-0.00104724
0.00094759
-0.0011313
0.000951584
-0.00119697
0.000928821
-0.00124507
0.000883802
-0.00127774
0.000821807
-0.00129799
0.000748091
-0.00130912
0.000667239
-0.00131424
0.000582778
-0.00131592
0.000497061
-0.00131609
0.000411418
-0.00131602
0.000326415
-0.00131648
0.000242111
-0.00131791
0.000158313
-0.0013206
7.47338e-05
-0.00132471
-8.95853e-06
-0.00133049
-9.30863e-05
-0.00133826
-0.000177924
-0.00134844
-0.000263756
-0.00136144
-0.000350979
-0.0013775
-0.00044009
-0.00139646
-0.000531644
-0.00141718
-0.000626127
-0.00143693
-0.000723637
-0.00145078
-0.000823207
-0.00145122
-0.000921837
-0.00142851
-0.00101343
-0.00137204
-0.00108807
-0.00127294
-0.00113227
-0.00112751
-0.00113087
-0.000940614
-0.00107094
-0.000727445
-0.000947034
-0.000512004
-0.0007664
-0.000321268
-0.00055125
-0.000175837
-0.000335024
-8.16077e-05
-0.000151175
-2.96103e-05
-1.91551e-05
-5.3896e-06
6.05119e-05
2.49509e-06
9.56161e-05
2.1819e-06
9.05572e-05
4.48766e-05
-3.11636e-05
4.66777e-05
-9.24268e-05
0.000138493
-0.000172421
0.000246913
-0.000268675
0.000373141
-0.000379533
0.000509561
-0.000501313
0.000646986
-0.000628023
0.000775347
-0.000752487
0.000884408
-0.000867862
0.000965854
-0.00096876
0.00101489
-0.0010518
0.00103063
-0.00111571
0.00101549
-0.00116121
0.000974327
-0.00119065
0.00091324
-0.00120741
0.000838563
-0.00121523
0.000755912
-0.0012176
0.000669608
-0.0012173
0.000582483
-0.00121628
0.000496039
-0.00121567
0.000410809
-0.001216
0.000326743
-0.00121741
0.000243519
-0.00121986
0.000160762
-0.00122325
7.81255e-05
-0.00122753
-4.67364e-06
-0.0012328
-8.78195e-05
-0.00123928
-0.000171448
-0.00124735
-0.000255683
-0.0012576
-0.000340731
-0.00127077
-0.000426921
-0.00128762
-0.000514791
-0.0013086
-0.000605149
-0.00133326
-0.000698971
-0.00135946
-0.000797013
-0.00138231
-0.000898982
-0.00139353
-0.00100221
-0.00138155
-0.00110005
-0.00133322
-0.0011806
-0.0012372
-0.00122688
-0.00108862
-0.00121952
-0.000893463
-0.00114219
-0.000670668
-0.000989195
-0.000449624
-0.000772295
-0.000261709
-0.000522939
-0.000127791
-0.000285093
-4.91491e-05
-9.77973e-05
-1.12713e-05
2.26341e-05
2.16078e-06
8.2184e-05
2.88171e-06
8.98363e-05
4.77583e-05
-3.85897e-05
8.52674e-05
-0.000109888
0.000209791
-0.000199151
0.000336176
-0.000302839
0.000476828
-0.000418096
0.000624818
-0.000539967
0.000768857
-0.000661709
0.000897089
-0.000776206
0.000998906
-0.000877376
0.00106702
-0.000961051
0.00109857
-0.00102534
0.00109492
-0.00107062
0.00106077
-0.00109918
0.00100289
-0.00111464
0.000928697
-0.00112111
0.000845039
-0.00112246
0.000757262
-0.00112173
0.000668872
-0.00112091
0.000581668
-0.00112107
0.0004962
-0.00112255
0.000412287
-0.00112526
0.000329454
-0.00112894
0.000247195
-0.00113328
0.000165105
-0.00113805
8.28969e-05
-0.00114312
3.97022e-07
-0.00114848
-8.24653e-05
-0.00115421
-0.000165716
-0.00116055
-0.000249344
-0.00116792
-0.000333356
-0.00117701
-0.000417836
-0.00118874
-0.000503057
-0.00120428
-0.000589614
-0.00122471
-0.000678536
-0.00125044
-0.000771283
-0.00128004
-0.000869382
-0.00130885
-0.000973404
-0.00132779
-0.00108111
-0.00132334
-0.00118504
-0.00127962
-0.00127061
-0.00118287
-0.00131628
-0.00102758
-0.00129748
-0.000822192
-0.00119459
-0.000591071
-0.00100342
-0.000369992
-0.000744018
-0.000193735
-0.00046135
-7.99895e-05
-0.000211542
-2.19451e-05
-3.54104e-05
2.49997e-07
5.99889e-05
3.2739e-06
8.68124e-05
5.10322e-05
-4.44963e-05
0.000129764
-0.000123394
0.000288688
-0.000218975
0.000431758
-0.000326565
0.000584419
-0.000442227
0.00074048
-0.000560151
0.00088678
-0.000673387
0.00101033
-0.000775341
0.00110086
-0.000861006
0.00115269
-0.000927637
0.0011652
-0.000974945
0.00114223
-0.00100488
0.00109071
-0.00102105
0.00101905
-0.00102781
0.000935462
-0.00102938
0.000846609
-0.0010291
0.000756982
-0.00102914
0.000668904
-0.00103053
0.000583062
-0.00103351
0.000499183
-0.00103785
0.000416622
-0.00104312
0.00033473
-0.00104894
0.000253011
-0.00105498
0.00017115
-0.00106106
8.89707e-05
-0.00106706
6.40026e-06
-0.00107296
-7.6568e-05
-0.00107877
-0.000159904
-0.00108457
-0.000243543
-0.00109053
-0.000327394
-0.00109699
-0.00041138
-0.00110455
-0.000495495
-0.00111424
-0.000579931
-0.0011275
-0.000665269
-0.00114605
-0.000752735
-0.00117111
-0.000844321
-0.00120207
-0.000942445
-0.00123452
-0.00104866
-0.00125849
-0.00116108
-0.00125816
-0.00127093
-0.00121464
-0.00135979
-0.00111204
-0.00140008
-0.000945541
-0.00136109
-0.000728132
-0.00122083
-0.000491768
-0.000980381
-0.000279076
-0.000674041
-0.00012536
-0.000365259
-3.96765e-05
-0.000121094
-4.39002e-06
2.47024e-05
3.03261e-06
7.93897e-05
5.40648e-05
-4.83124e-05
0.000178076
-0.000131959
0.000372334
-0.000230709
0.000530508
-0.000338763
0.000692472
-0.000451338
0.000853055
-0.00056221
0.000997652
-0.000664671
0.00111279
-0.000752978
0.00118917
-0.000823388
0.0012231
-0.000874655
0.00121647
-0.00090802
0.00117559
-0.000926738
0.00110943
-0.000935209
0.00102753
-0.000937928
0.000938181
-0.000938595
0.000847276
-0.00093964
0.000758027
-0.00094222
0.000671484
-0.000946535
0.000587377
-0.000952254
0.000504901
-0.000958869
0.000423237
-0.00096592
0.00034178
-0.000973079
0.00026017
-0.000980159
0.00017823
-0.000987079
9.58904e-05
-0.000993817
1.31385e-05
-0.00100037
-7.00105e-05
-0.00100675
-0.000153524
-0.00101295
-0.000237349
-0.00101894
-0.0003214
-0.00102477
-0.000405555
-0.0010306
-0.000489664
-0.00103691
-0.000573615
-0.0010447
-0.000657484
-0.00105561
-0.000741824
-0.00107188
-0.000828049
-0.0010956
-0.000918729
-0.00112696
-0.0010173
-0.00116165
-0.00112639
-0.00118834
-0.00124425
-0.00118837
-0.00135976
-0.00113968
-0.00144877
-0.00102508
-0.00147568
-0.00084265
-0.00140326
-0.000613016
-0.00121002
-0.000377933
-0.000909124
-0.000185677
-0.000557515
-6.59167e-05
-0.000240854
-1.23344e-05
-2.888e-05
2.04217e-06
6.5013e-05
5.6107e-05
-4.97083e-05
0.000227784
-0.000135093
0.000457718
-0.000233931
0.000629347
-0.000339363
0.000797905
-0.000446056
0.000959748
-0.000547765
0.00109936
-0.000638358
0.00120338
-0.000713137
0.00126395
-0.000769691
0.00127965
-0.000808194
0.00125497
-0.000831159
0.00119856
-0.000842694
0.00112096
-0.00084742
0.00103225
-0.000849399
0.000940161
-0.00085145
0.000849326
-0.000854982
0.000761559
-0.000860286
0.000676788
-0.000867004
0.000594096
-0.000874565
0.000512462
-0.000882458
0.00043113
-0.000890345
0.000349667
-0.00089806
0.000267886
-0.000905564
0.000185734
-0.000912884
0.000103211
-0.000920071
2.03248e-05
-0.000927166
-6.29151e-05
-0.000934185
-0.000146504
-0.000941103
-0.000230432
-0.000947844
-0.000314659
-0.000954298
-0.000399101
-0.000960353
-0.000483609
-0.000966001
-0.000567967
-0.000971533
-0.000651952
-0.000977844
-0.000735513
-0.000986747
-0.000819145
-0.00100101
-0.000904471
-0.00102353
-0.00099477
-0.00105521
-0.00109472
-0.00109137
-0.00120808
-0.00111857
-0.00133255
-0.00111455
-0.00145279
-0.00105412
-0.00153611
-0.000920636
-0.00153675
-0.00071862
-0.00141203
-0.00048026
-0.00114748
-0.000258244
-0.000779532
-0.000101486
-0.000397611
-2.37466e-05
-0.00010662
3.09404e-07
4.0957e-05
5.64164e-05
-4.8597e-05
0.000276381
-0.000132766
0.000541887
-0.000228873
0.000725454
-0.000329113
0.000898145
-0.000427881
0.00105852
-0.000519232
0.00119071
-0.000597824
0.00128197
-0.00066008
0.0013262
-0.000704855
0.00132443
-0.000733521
0.00128363
-0.000749474
0.00121451
-0.000757161
0.00112865
-0.000760911
0.001036
-0.000764003
0.000943252
-0.000768262
0.000853585
-0.000774221
0.000767518
-0.000781594
0.000684161
-0.000789782
0.000602284
-0.000798228
0.000520909
-0.00080657
0.000439472
-0.000814647
0.000357744
-0.000822447
0.000275686
-0.000830036
0.000193322
-0.000837505
0.00011068
-0.000844938
2.7758e-05
-0.000852399
-5.54538e-05
-0.000859917
-0.000138987
-0.000867484
-0.000222865
-0.00087504
-0.000307102
-0.000882463
-0.000391678
-0.000889557
-0.000476515
-0.00089608
-0.000561444
-0.000901846
-0.000646186
-0.000906962
-0.000730397
-0.000912233
-0.000813874
-0.000919636
-0.000897068
-0.000932485
-0.000981922
-0.000954509
-0.00107269
-0.000987004
-0.00117559
-0.00102418
-0.00129537
-0.00104921
-0.00142776
-0.00103535
-0.00154998
-0.000955209
-0.00161689
-0.000796155
-0.00157109
-0.000574333
-0.00136931
-0.000337228
-0.00101664
-0.000146121
-0.000588718
-3.90031e-05
-0.000213738
-2.30561e-06
4.2594e-06
5.41108e-05
-4.5098e-05
0.000321479
-0.000125319
0.000622108
-0.000216266
0.000816401
-0.000309312
0.00099119
-0.000398819
0.00114802
-0.000479371
0.00127126
-0.000546521
0.00134912
-0.00059778
0.00137746
-0.000633089
0.00135974
-0.000654695
0.00130524
-0.000666436
0.00122625
-0.00067264
0.00113485
-0.000677001
0.00104036
-0.000681884
0.000948135
-0.000688239
0.00085994
-0.000695989
0.000775268
-0.000704575
0.000692748
-0.000713403
0.000611112
-0.000722067
0.000529572
-0.00073039
0.000447795
-0.00073837
0.000365724
-0.000746092
0.000283408
-0.000753672
0.000200902
-0.000761219
0.000118226
-0.000768818
3.53577e-05
-0.000776534
-4.77381e-05
-0.0007844
-0.000131121
-0.000792426
-0.00021484
-0.000800587
-0.000298941
-0.000808803
-0.000383462
-0.000816919
-0.0004684
-0.000824677
-0.000553687
-0.000831729
-0.000639134
-0.000837735
-0.000724391
-0.000842635
-0.000808974
-0.000847176
-0.000892526
-0.000853584
-0.000975515
-0.000865845
-0.00106043
-0.000888482
-0.00115295
-0.000922636
-0.00126122
-0.000960015
-0.00139038
-0.000978738
-0.00153125
-0.000947192
-0.00164843
-0.000838408
-0.00167987
-0.000649542
-0.00155817
-0.000414649
-0.00125153
-0.000197776
-0.000805591
-5.87643e-05
-0.00035275
-5.87502e-06
-4.863e-05
4.82357e-05
-3.94837e-05
0.000360963
-0.000113353
0.000695977
-0.000197152
0.0009002
-0.00028155
0.00107559
-0.000361059
0.00122753
-0.000430925
0.00134113
-0.000487614
0.00140581
-0.000529598
0.00141944
-0.000557648
0.00138779
-0.000574519
0.00132211
-0.000584089
0.00123582
-0.000590231
0.001141
-0.000595847
0.00104598
-0.000602458
0.000954745
-0.000610365
0.000867847
-0.000619162
0.000784065
-0.000628254
0.000701839
-0.00063718
0.000620038
-0.000645721
0.000538113
-0.000653859
0.000455934
-0.000661689
0.000373554
-0.00066934
0.000291059
-0.000676937
0.000208499
-0.000684578
0.000125868
-0.000692336
4.31161e-05
-0.000700265
-3.9809e-05
-0.000708395
-0.00012299
-0.000716744
-0.000206491
-0.000725307
-0.000290378
-0.000734051
-0.000374718
-0.000742884
-0.000459566
-0.000751632
-0.000544939
-0.00075999
-0.000630776
-0.000767519
-0.000716862
-0.00077374
-0.000802753
-0.000778464
-0.000887803
-0.000782478
-0.000971501
-0.000788436
-0.00105447
-0.000801174
-0.00114021
-0.000825842
-0.00123655
-0.000862375
-0.00135385
-0.000897881
-0.00149575
-0.000903613
-0.0016427
-0.00084417
-0.00173931
-0.000698622
-0.00170372
-0.000482273
-0.00146788
-0.000252362
-0.0010355
-8.31774e-05
-0.000521934
-1.03789e-05
-0.000121429
3.78568e-05
-3.21259e-05
0.000393089
-9.76135e-05
0.000761465
-0.000172714
0.000975301
-0.000247497
0.00115037
-0.000316727
0.00129676
-0.000376377
0.00140078
-0.000423766
0.0014532
-0.000458145
0.00145382
-0.000480821
0.00141046
-0.000494712
0.001336
-0.000503417
0.00124453
-0.000510164
0.00114774
-0.000517076
0.00105289
-0.000524995
0.000962665
-0.000533826
0.000876678
-0.000543057
0.000793296
-0.000552189
0.000710971
-0.000560937
0.000628785
-0.00056924
0.000546416
-0.000577182
0.000463876
-0.000584901
0.000381273
-0.000592532
0.000298691
-0.000600187
0.000216154
-0.000607949
0.000133629
-0.000615876
5.1043e-05
-0.000624012
-3.16727e-05
-0.000632381
-0.000114621
-0.000640998
-0.000197874
-0.000649868
-0.000281508
-0.000658977
-0.000365609
-0.000668284
-0.000450259
-0.000677692
-0.000535532
-0.000687005
-0.000621463
-0.000695876
-0.000707991
-0.000703776
-0.000794853
-0.000710105
-0.000881474
-0.000714608
-0.000966997
-0.000718273
-0.00105081
-0.000724464
-0.00113402
-0.000739085
-0.00122193
-0.000767411
-0.00132552
-0.000806193
-0.00145697
-0.000835039
-0.00161386
-0.000817447
-0.0017569
-0.000718684
-0.00180248
-0.000533489
-0.00165307
-0.000304595
-0.0012644
-0.000111231
-0.000715298
-1.58203e-05
-0.000216839
2.20365e-05
-2.34483e-05
0.000416537
-7.89071e-05
0.000816924
-0.000144153
0.00104055
-0.000208741
0.00121496
-0.000267728
0.00135575
-0.000317815
0.00145087
-0.000357065
0.00149245
-0.000385296
0.00148205
-0.000404072
0.00142924
-0.000416179
0.00134811
-0.000424725
0.00125307
-0.000432242
0.00115526
-0.000440172
0.00106082
-0.000448888
0.000971381
-0.000458105
0.000885895
-0.000467348
0.000802539
-0.000476264
0.000719888
-0.000484725
0.000637246
-0.000492778
0.000554469
-0.000500557
0.000471654
-0.000508206
0.000388922
-0.000515847
0.000306333
-0.000523575
0.000223882
-0.00053146
0.000141514
-0.000539554
5.91366e-05
-0.000547896
-2.33307e-05
-0.000556503
-0.000106014
-0.000565387
-0.00018899
-0.00057455
-0.000272345
-0.000583984
-0.000356175
-0.000593666
-0.000440576
-0.000603548
-0.00052565
-0.00061352
-0.00061149
-0.000623364
-0.000698147
-0.000632676
-0.000785541
-0.000640831
-0.000873319
-0.000647124
-0.000960705
-0.000651339
-0.00104659
-0.00065494
-0.00113042
-0.000662416
-0.00121446
-0.000680797
-0.00130714
-0.000714139
-0.00142362
-0.00075272
-0.00157528
-0.000765679
-0.00174394
-0.000710994
-0.00185717
-0.000564448
-0.00179962
-0.000349432
-0.00147941
-0.000140927
-0.000923803
-2.20971e-05
-0.000335669
-6.06503e-08
-1.3892e-05
0.000430429
-5.80316e-05
0.000861063
-0.000112594
0.00109511
-0.000166697
0.00126906
-0.000215668
0.00140472
-0.000256887
0.00149209
-0.000289036
0.0015246
-0.000312291
0.00150531
-0.000328224
0.00144517
-0.000339274
0.00135916
-0.000347949
0.00126175
-0.000356114
0.00116343
-0.000364676
0.00106938
-0.000373724
0.000980429
-0.00038293
0.000895101
-0.000391923
0.000811532
-0.000400498
0.000728463
-0.00040864
0.000645388
-0.000416455
0.000562284
-0.000424088
0.000479288
-0.000431676
0.000396509
-0.000439322
0.000313979
-0.000447105
0.000231665
-0.000455092
0.000149501
-0.000463334
6.7379e-05
-0.000471873
-1.47912e-05
-0.000480723
-9.71637e-05
-0.000489891
-0.000179823
-0.000499372
-0.000262864
-0.000509156
-0.000346391
-0.000519222
-0.00043051
-0.00052954
-0.000515332
-0.000540049
-0.000600981
-0.000550622
-0.000687574
-0.000560999
-0.000775164
-0.0005707
-0.000863618
-0.00057899
-0.000952415
-0.000585099
-0.00104048
-0.000589042
-0.00112648
-0.000593192
-0.0012103
-0.000603629
-0.0012967
-0.00062802
-0.00139923
-0.000666285
-0.00153701
-0.000697615
-0.00171261
-0.000679897
-0.00187489
-0.000574321
-0.0019052
-0.000383159
-0.00167057
-0.000169691
-0.00113727
-2.94205e-05
-0.000475939
-2.94811e-05
-3.87669e-06
0.000434306
-3.57515e-05
0.000892938
-7.90454e-05
0.0011384
-0.000122566
0.00131258
-0.000161835
0.00144399
-0.00019483
0.00152508
-0.000220726
0.00155049
-0.000239872
0.00152445
-0.000253656
0.00145896
-0.000264029
0.00136953
-0.00027286
0.00127058
-0.000281425
0.00117199
-0.000290239
0.0010782
-0.000299251
0.000989441
-0.000308173
0.000904024
-0.000316763
0.000820122
-0.000324933
0.000736633
-0.00033274
0.000653195
-0.000340313
0.000569858
-0.000347793
0.000486767
-0.000355295
0.000404012
-0.000362912
0.000321596
-0.000370714
0.000239467
-0.000378765
0.000157552
-0.000387127
7.57414e-05
-0.000395846
-6.07165e-06
-0.000404939
-8.80712e-05
-0.000414408
-0.000170354
-0.000424241
-0.000253031
-0.000434422
-0.00033621
-0.000444927
-0.000420005
-0.000455727
-0.000504532
-0.000466781
-0.000589927
-0.000478012
-0.000676342
-0.00048926
-0.000763916
-0.000500201
-0.000852677
-0.000510249
-0.000942367
-0.000518554
-0.00103218
-0.00052438
-0.00112065
-0.000528316
-0.00120637
-0.000534278
-0.00129074
-0.000550205
-0.00138331
-0.00058245
-0.00150477
-0.000621516
-0.00167355
-0.000631427
-0.00186498
-0.000564829
-0.00197179
-0.000403891
-0.00183151
-0.000195076
-0.00134609
-3.78536e-05
-0.000633162
-6.73348e-05
6.06022e-06
0.000428246
-1.27358e-05
0.000911734
-4.43982e-05
0.00117007
-7.734e-05
0.00134552
-0.000107226
0.00147387
-0.00013253
0.00155039
-0.000152802
0.00157077
-0.000168423
0.00154008
-0.000180461
0.001471
-0.000190299
0.00137937
-0.000199178
0.00127946
-0.000207869
0.00118068
-0.000216617
0.00108694
-0.000225321
0.000998144
-0.000233779
0.000912482
-0.000241866
0.00082821
-0.000249586
0.000744352
-0.000257033
0.000660642
-0.000264338
0.000577163
-0.000271627
0.000494056
-0.000279002
0.000411387
-0.000286544
0.000329138
-0.000294319
0.000247243
-0.000302393
0.000165626
-0.000310839
8.41879e-05
-0.000319714
2.80304e-06
-0.000329042
-7.87426e-05
-0.000338824
-0.000160572
-0.000349039
-0.000242815
-0.000359664
-0.000325585
-0.000370671
-0.000408998
-0.000382029
-0.000493174
-0.000393701
-0.000578255
-0.000405632
-0.000664411
-0.000417718
-0.00075183
-0.000429744
-0.000840652
-0.000441289
-0.000930821
-0.000451638
-0.00102183
-0.000459855
-0.00111243
-0.00046546
-0.00120076
-0.000470214
-0.00128599
-0.000480314
-0.00137321
-0.000504824
-0.00148026
-0.000543988
-0.00163438
-0.000571974
-0.00183699
-0.000539398
-0.00200437
-0.000411524
-0.00195939
-0.00021532
-0.00154229
-4.6972e-05
-0.00080151
-0.000114307
1.53103e-05
0.000412936
1.03758e-05