/*--------------------------------*- C++ -*----------------------------------*\
  =========                 |
  \\      /  F ield         | OpenFOAM: The Open Source CFD Toolbox
   \\    /   O peration     | Website:  https://openfoam.org
    \\  /    A nd           | Version:  7
     \\/     M anipulation  |
\*---------------------------------------------------------------------------*/
FoamFile
{
    version     2.0;
    format      ascii;
    class       volVectorField;
    location    "1850";
    object      U;
}
// * * * * * * * * * * * * * * * * * * * * * * * * * * * * * * * * * * * * * //

dimensions      [0 1 -1 0 0 0 0];

internalField   nonuniform List<vector> 
2500
(
(0.000207745 -0.000200923 0)
(0.00186657 -0.000570984 0)
(0.00447438 -0.000697765 0)
(0.00716323 -0.000600074 0)
(0.00922931 -0.000418976 0)
(0.0104506 -0.000264315 0)
(0.0109304 -0.000187979 0)
(0.0108814 -0.000185849 0)
(0.010451 -0.000219837 0)
(0.00963462 -0.000245408 0)
(0.00828323 -0.000228673 0)
(0.00616446 -0.000150778 0)
(0.00302106 -2.68011e-06 0)
(-0.00139067 0.000221001 0)
(-0.00727535 0.000523404 0)
(-0.0147655 0.000908064 0)
(-0.0238835 0.00137498 0)
(-0.0344993 0.00191252 0)
(-0.0462951 0.00248747 0)
(-0.0587448 0.00303755 0)
(-0.0711201 0.00347297 0)
(-0.0825274 0.00368915 0)
(-0.0919775 0.00358771 0)
(-0.0984881 0.00310347 0)
(-0.101194 0.00223071 0)
(-0.0994214 0.0010275 0)
(-0.0929021 -0.000375318 0)
(-0.0817098 -0.00181213 0)
(-0.0663126 -0.00310941 0)
(-0.0475673 -0.00410034 0)
(-0.0266927 -0.00463992 0)
(-0.00517103 -0.00460538 0)
(0.0154717 -0.00393482 0)
(0.0337658 -0.00278342 0)
(0.0484043 -0.00137041 0)
(0.0584321 0.000126543 0)
(0.0634692 0.00149762 0)
(0.0637286 0.00253478 0)
(0.0600169 0.00311218 0)
(0.0534995 0.00322497 0)
(0.0454083 0.00298645 0)
(0.0368465 0.00254953 0)
(0.0286509 0.00204861 0)
(0.0213413 0.00157426 0)
(0.0151472 0.00117416 0)
(0.0100796 0.000863362 0)
(0.00602881 0.000631197 0)
(0.002901 0.00043599 0)
(0.000795268 0.000192765 0)
(-8.20362e-05 -8.74375e-05 0)
(0.000566364 -0.00181793 0)
(0.00437511 -0.00431605 0)
(0.00958227 -0.00511668 0)
(0.0146041 -0.00444061 0)
(0.0181618 -0.00299829 0)
(0.0197687 -0.00145776 0)
(0.0194634 -0.000192426 0)
(0.0174571 0.00076564 0)
(0.013835 0.00162522 0)
(0.00840825 0.00266502 0)
(0.000740155 0.00410235 0)
(-0.00972547 0.00604314 0)
(-0.0235177 0.00849158 0)
(-0.0409989 0.0113806 0)
(-0.0622493 0.0145718 0)
(-0.0869618 0.0178396 0)
(-0.114378 0.0208634 0)
(-0.143305 0.0232511 0)
(-0.172219 0.024594 0)
(-0.199441 0.0245351 0)
(-0.223314 0.0228269 0)
(-0.242358 0.0193699 0)
(-0.255373 0.0142288 0)
(-0.261505 0.00763625 0)
(-0.260277 -1.85863e-05 0)
(-0.251622 -0.00821984 0)
(-0.235734 -0.0163961 0)
(-0.213063 -0.0239928 0)
(-0.184376 -0.0304482 0)
(-0.150759 -0.0352291 0)
(-0.113622 -0.0378723 0)
(-0.0746655 -0.0380338 0)
(-0.0357988 -0.0355696 0)
(0.00104518 -0.0306634 0)
(0.0340211 -0.0238137 0)
(0.0614518 -0.0157461 0)
(0.0820204 -0.00728188 0)
(0.0950062 0.000696368 0)
(0.100274 0.00734539 0)
(0.098439 0.0120831 0)
(0.0909561 0.0147123 0)
(0.0796117 0.0154349 0)
(0.0662317 0.0147155 0)
(0.052414 0.0131076 0)
(0.0393365 0.0111171 0)
(0.0276934 0.00911019 0)
(0.0177731 0.00724864 0)
(0.009682 0.00543449 0)
(0.00372611 0.00334307 0)
(0.000329271 0.000918389 0)
(0.0007858 -0.00449513 0)
(0.00568878 -0.00969465 0)
(0.0117183 -0.010917 0)
(0.0169072 -0.00900571 0)
(0.0197649 -0.00542403 0)
(0.0197141 -0.00146983 0)
(0.0166727 0.0021525 0)
(0.0106386 0.0054229 0)
(0.00138654 0.00878044 0)
(-0.0116151 0.0127914 0)
(-0.0290793 0.0178421 0)
(-0.0516336 0.0240094 0)
(-0.0795836 0.0310821 0)
(-0.1127 0.0385964 0)
(-0.150108 0.0458724 0)
(-0.190335 0.0520912 0)
(-0.231489 0.056429 0)
(-0.271537 0.0582001 0)
(-0.308556 0.0569585 0)
(-0.340919 0.0525372 0)
(-0.367386 0.0450348 0)
(-0.387113 0.0347685 0)
(-0.399593 0.0222122 0)
(-0.404561 0.00794335 0)
(-0.401937 -0.00738951 0)
(-0.391701 -0.0231006 0)
(-0.373895 -0.0384759 0)
(-0.348787 -0.0527306 0)
(-0.316855 -0.0650325 0)
(-0.27887 -0.0745399 0)
(-0.235927 -0.0804761 0)
(-0.189462 -0.0822336 0)
(-0.141231 -0.0794843 0)
(-0.0932404 -0.0722831 0)
(-0.0476021 -0.0611769 0)
(-0.00631061 -0.0471716 0)
(0.0289115 -0.0315592 0)
(0.0567063 -0.0157866 0)
(0.0763825 -0.00114379 0)
(0.0876664 0.0111727 0)
(0.0908213 0.0202554 0)
(0.087101 0.0257409 0)
(0.0782107 0.0278616 0)
(0.0660405 0.0273071 0)
(0.0523904 0.0249764 0)
(0.0387215 0.0217246 0)
(0.0260339 0.018122 0)
(0.0149679 0.014239 0)
(0.00625642 0.00958286 0)
(0.000705199 0.00358658 0)
(0.000917715 -0.00772683 0)
(0.00606868 -0.0155923 0)
(0.0115469 -0.016538 0)
(0.015165 -0.012452 0)
(0.0154196 -0.00573406 0)
(0.0117521 0.00169907 0)
(0.00393795 0.00894182 0)
(-0.00837154 0.0161026 0)
(-0.0258414 0.023944 0)
(-0.0492871 0.0332172 0)
(-0.0793462 0.0442023 0)
(-0.116116 0.0565584 0)
(-0.15893 0.0694099 0)
(-0.206334 0.0815343 0)
(-0.25629 0.0916027 0)
(-0.306515 0.0984288 0)
(-0.354833 0.101165 0)
(-0.399439 0.0993913 0)
(-0.439 0.093092 0)
(-0.472633 0.0825656 0)
(-0.499815 0.068316 0)
(-0.520257 0.0509462 0)
(-0.533759 0.031079 0)
(-0.540144 0.00934425 0)
(-0.539262 -0.0135887 0)
(-0.53094 -0.036981 0)
(-0.515044 -0.0599928 0)
(-0.491534 -0.0816684 0)
(-0.46052 -0.100936 0)
(-0.422334 -0.116645 0)
(-0.377596 -0.127663 0)
(-0.327311 -0.132996 0)
(-0.27295 -0.131948 0)
(-0.216456 -0.124313 0)
(-0.160145 -0.110523 0)
(-0.106494 -0.0916908 0)
(-0.0578525 -0.0695176 0)
(-0.0160909 -0.0460052 0)
(0.0175971 -0.0230679 0)
(0.0426218 -0.00244824 0)
(0.0589207 0.0146173 0)
(0.0667542 0.0272052 0)
(0.0672338 0.0349407 0)
(0.061915 0.0381658 0)
(0.0525875 0.0377848 0)
(0.041043 0.034933 0)
(0.0288321 0.0305679 0)
(0.01719 0.0250316 0)
(0.00742141 0.0177398 0)
(0.000862118 0.00736576 0)
(0.000999799 -0.0110181 0)
(0.00561132 -0.020828 0)
(0.00923001 -0.020349 0)
(0.00967974 -0.0129029 0)
(0.00562227 -0.00193705 0)
(-0.00346113 0.0101254 0)
(-0.018035 0.0223838 0)
(-0.0388546 0.0352816 0)
(-0.0668541 0.0497585 0)
(-0.102685 0.0663405 0)
(-0.146247 0.0846553 0)
(-0.196464 0.103472 0)
(-0.251398 0.121061 0)
(-0.308603 0.135628 0)
(-0.365572 0.145687 0)
(-0.420124 0.150285 0)
(-0.470617 0.149059 0)
(-0.515969 0.142132 0)
(-0.555542 0.129953 0)
(-0.589009 0.113145 0)
(-0.616227 0.0923884 0)
(-0.637109 0.0683393 0)
(-0.651566 0.0416179 0)
(-0.659526 0.0128607 0)
(-0.660914 -0.0172597 0)
(-0.655588 -0.0480253 0)
(-0.643307 -0.0785975 0)
(-0.623798 -0.107958 0)
(-0.596796 -0.134907 0)
(-0.562069 -0.158093 0)
(-0.519548 -0.176055 0)
(-0.469525 -0.187328 0)
(-0.412824 -0.190647 0)
(-0.350925 -0.185238 0)
(-0.286029 -0.17109 0)
(-0.220969 -0.149135 0)
(-0.158914 -0.121262 0)
(-0.102866 -0.0900742 0)
(-0.0551138 -0.0584252 0)
(-0.0168441 -0.0288325 0)
(0.0118178 -0.0030712 0)
(0.0312514 0.0176569 0)
(0.0420104 0.0326821 0)
(0.0452992 0.0418504 0)
(0.0426372 0.0457004 0)
(0.0357508 0.0453007 0)
(0.0264032 0.0417606 0)
(0.0162525 0.0356005 0)
(0.00711054 0.0261577 0)
(0.000796571 0.0113831 0)
(0.000995813 -0.0139233 0)
(0.00416255 -0.0242955 0)
(0.00458268 -0.02088 0)
(0.000398515 -0.00872838 0)
(-0.009463 0.00765755 0)
(-0.0255642 0.0255957 0)
(-0.0486482 0.0444844 0)
(-0.0796952 0.0649968 0)
(-0.11942 0.0877896 0)
(-0.167639 0.11255 0)
(-0.223008 0.137823 0)
(-0.283226 0.161456 0)
(-0.345525 0.181228 0)
(-0.407213 0.195362 0)
(-0.466067 0.202786 0)
(-0.520502 0.203155 0)
(-0.56955 0.196696 0)
(-0.612696 0.18398 0)
(-0.649737 0.16575 0)
(-0.680691 0.142798 0)
(-0.70569 0.115883 0)
(-0.724901 0.0856819 0)
(-0.738546 0.0528477 0)
(-0.746858 0.0180186 0)
(-0.74994 -0.0182212 0)
(-0.747753 -0.0552881 0)
(-0.7401 -0.0924665 0)
(-0.726584 -0.128847 0)
(-0.70659 -0.163325 0)
(-0.679322 -0.194537 0)
(-0.643979 -0.220816 0)
(-0.599936 -0.240277 0)
(-0.546957 -0.251028 0)
(-0.485478 -0.251478 0)
(-0.416909 -0.24071 0)
(-0.343793 -0.218876 0)
(-0.269704 -0.187486 0)
(-0.198833 -0.149398 0)
(-0.135228 -0.108382 0)
(-0.0818931 -0.0683155 0)
(-0.0401164 -0.0323181 0)
(-0.00952274 -0.00225293 0)
(0.0110551 0.0211485 0)
(0.0228079 0.037605 0)
(0.027164 0.0473326 0)
(0.0257873 0.0511132 0)
(0.020468 0.0499412 0)
(0.0130798 0.0443213 0)
(0.00575004 0.0334784 0)
(0.000591112 0.0148945 0)
(0.000840022 -0.0158652 0)
(0.00148512 -0.024772 0)
(-0.00259313 -0.0166973 0)
(-0.0126823 0.00144669 0)
(-0.0295669 0.0244009 0)
(-0.0539213 0.0495679 0)
(-0.0866451 0.0766389 0)
(-0.128498 0.106078 0)
(-0.179355 0.137638 0)
(-0.237788 0.169772 0)
(-0.301272 0.200002 0)
(-0.366772 0.225693 0)
(-0.431378 0.24473 0)
(-0.492722 0.255851 0)
(-0.549147 0.258661 0)
(-0.59966 0.253445 0)
(-0.643784 0.240905 0)
(-0.681409 0.221946 0)
(-0.712721 0.197546 0)
(-0.738124 0.168666 0)
(-0.758125 0.136153 0)
(-0.773295 0.100753 0)
(-0.78425 0.0631271 0)
(-0.791482 0.0238047 0)
(-0.795266 -0.0168117 0)
(-0.795745 -0.0583156 0)
(-0.792875 -0.100231 0)
(-0.786218 -0.141963 0)
(-0.774985 -0.182701 0)
(-0.758084 -0.221268 0)
(-0.734188 -0.256037 0)
(-0.701804 -0.28497 0)
(-0.659501 -0.30572 0)
(-0.606301 -0.315854 0)
(-0.542142 -0.313254 0)
(-0.468296 -0.296696 0)
(-0.387662 -0.266436 0)
(-0.304734 -0.224622 0)
(-0.225044 -0.175272 0)
(-0.154063 -0.123619 0)
(-0.0957915 -0.0748541 0)
(-0.051689 -0.032771 0)
(-0.0207407 0.00087758 0)
(-0.000738083 0.0259553 0)
(0.0103142 0.0427944 0)
(0.0143185 0.052017 0)
(0.0132109 0.05442 0)
(0.00901512 0.0503564 0)
(0.00400162 0.0389289 0)
(0.000362335 0.0174931 0)
(0.00046531 -0.0160989 0)
(-0.0025716 -0.0209772 0)
(-0.0122812 -0.00662282 0)
(-0.0292282 0.0186527 0)
(-0.0539428 0.0492651 0)
(-0.0871768 0.0828697 0)
(-0.129655 0.119114 0)
(-0.181384 0.157653 0)
(-0.241044 0.196934 0)
(-0.306046 0.234246 0)
(-0.373155 0.266543 0)
(-0.439201 0.291285 0)
(-0.501582 0.306908 0)
(-0.558451 0.312875 0)
(-0.608695 0.309477 0)
(-0.651808 0.297547 0)
(-0.687762 0.278208 0)
(-0.716909 0.252702 0)
(-0.739915 0.222273 0)
(-0.757621 0.188044 0)
(-0.770929 0.150947 0)
(-0.78076 0.111746 0)
(-0.787942 0.0709999 0)
(-0.793072 0.0290393 0)
(-0.796584 -0.0139096 0)
(-0.798795 -0.0576423 0)
(-0.799759 -0.10201 0)
(-0.799128 -0.146805 0)
(-0.796258 -0.191587 0)
(-0.790139 -0.235544 0)
(-0.779286 -0.277414 0)
(-0.761732 -0.315389 0)
(-0.735191 -0.34704 0)
(-0.697381 -0.3694 0)
(-0.646473 -0.379287 0)
(-0.581713 -0.373876 0)
(-0.504113 -0.351463 0)
(-0.416956 -0.312294 0)
(-0.325817 -0.259199 0)
(-0.237854 -0.197604 0)
(-0.160265 -0.134588 0)
(-0.0982281 -0.076993 0)
(-0.0533055 -0.0293657 0)
(-0.0235719 0.00687715 0)
(-0.00555471 0.0324547 0)
(0.003619 0.0482979 0)
(0.00646151 0.0552513 0)
(0.00529129 0.0535902 0)
(0.00248838 0.0423783 0)
(0.000209322 0.0191578 0)
(-0.000171531 -0.01379 0)
(-0.00796316 -0.0118372 0)
(-0.0241169 0.0101936 0)
(-0.048431 0.0434957 0)
(-0.0812236 0.0826296 0)
(-0.123131 0.125378 0)
(-0.174292 0.170811 0)
(-0.233634 0.217333 0)
(-0.298694 0.262093 0)
(-0.366137 0.30164 0)
(-0.432542 0.332911 0)
(-0.495001 0.353894 0)
(-0.5514 0.363781 0)
(-0.600435 0.362796 0)
(-0.641528 0.351882 0)
(-0.674709 0.332415 0)
(-0.700502 0.305963 0)
(-0.719817 0.274121 0)
(-0.733788 0.238347 0)
(-0.7436 0.199846 0)
(-0.750385 0.159538 0)
(-0.755159 0.118074 0)
(-0.758705 0.0758133 0)
(-0.761593 0.0329038 0)
(-0.764305 -0.0105863 0)
(-0.767172 -0.0546745 0)
(-0.770282 -0.0994802 0)
(-0.773531 -0.145075 0)
(-0.77663 -0.191363 0)
(-0.778919 -0.238015 0)
(-0.779206 -0.284347 0)
(-0.77568 -0.329104 0)
(-0.765899 -0.370254 0)
(-0.746859 -0.4049 0)
(-0.715307 -0.429371 0)
(-0.668382 -0.439574 0)
(-0.604507 -0.431716 0)
(-0.524361 -0.403375 0)
(-0.431636 -0.354707 0)
(-0.333158 -0.289364 0)
(-0.23797 -0.214559 0)
(-0.155213 -0.139702 0)
(-0.0912407 -0.0736124 0)
(-0.0473959 -0.021525 0)
(-0.0204243 0.0158117 0)
(-0.00546855 0.0401198 0)
(0.00120737 0.0527832 0)
(0.00267546 0.0543904 0)
(0.00160658 0.0442042 0)
(0.00018398 0.0201692 0)
(-0.00107217 -0.00817047 0)
(-0.0144136 0.00339752 0)
(-0.0373631 0.0341318 0)
(-0.0690368 0.0760331 0)
(-0.109491 0.124119 0)
(-0.15898 0.175932 0)
(-0.216761 0.229497 0)
(-0.280677 0.28186 0)
(-0.347456 0.329205 0)
(-0.413483 0.367865 0)
(-0.475531 0.395209 0)
(-0.531156 0.409988 0)
(-0.578807 0.412236 0)
(-0.617787 0.40295 0)
(-0.648151 0.383756 0)
(-0.670586 0.356596 0)
(-0.686234 0.323469 0)
(-0.696497 0.286217 0)
(-0.702806 0.246361 0)
(-0.706456 0.20502 0)
(-0.708534 0.162947 0)
(-0.70987 0.120561 0)
(-0.711026 0.0780087 0)
(-0.712414 0.0352924 0)
(-0.714368 -0.00766651 0)
(-0.71712 -0.0510376 0)
(-0.720781 -0.0950349 0)
(-0.725485 -0.139847 0)
(-0.731268 -0.185626 0)
(-0.737931 -0.232456 0)
(-0.744906 -0.280216 0)
(-0.751087 -0.328359 0)
(-0.754594 -0.375663 0)
(-0.752587 -0.419959 0)
(-0.741319 -0.457905 0)
(-0.716527 -0.48498 0)
(-0.674219 -0.495914 0)
(-0.611866 -0.485665 0)
(-0.529754 -0.450893 0)
(-0.432079 -0.39167 0)
(-0.327164 -0.312789 0)
(-0.226232 -0.223836 0)
(-0.140476 -0.137169 0)
(-0.0771124 -0.0638104 0)
(-0.0365876 -0.00930146 0)
(-0.0137785 0.0268112 0)
(-0.00262462 0.0471539 0)
(0.00130456 0.0532546 0)
(0.00144737 0.0450222 0)
(0.000288239 0.0209471 0)
(-0.00217934 0.00130702 0)
(-0.0214248 0.0250151 0)
(-0.0510183 0.0650535 0)
(-0.0894962 0.115734 0)
(-0.136545 0.172601 0)
(-0.191809 0.232549 0)
(-0.25359 0.292322 0)
(-0.318883 0.3478 0)
(-0.38402 0.394675 0)
(-0.445481 0.429529 0)
(-0.50046 0.450452 0)
(-0.5471 0.457099 0)
(-0.584518 0.450408 0)
(-0.61274 0.432206 0)
(-0.632566 0.404819 0)
(-0.645356 0.370706 0)
(-0.652761 0.332148 0)
(-0.656442 0.291019 0)
(-0.657847 0.248677 0)
(-0.658103 0.205977 0)
(-0.658003 0.163369 0)
(-0.658034 0.121002 0)
(-0.658464 0.0788412 0)
(-0.659454 0.036774 0)
(-0.661107 -0.00536691 0)
(-0.663548 -0.0477726 0)
(-0.666887 -0.0906168 0)
(-0.671328 -0.134082 0)
(-0.677084 -0.178403 0)
(-0.684339 -0.223849 0)
(-0.693161 -0.270657 0)
(-0.7033 -0.318909 0)
(-0.713873 -0.368313 0)
(-0.723027 -0.417836 0)
(-0.727666 -0.465232 0)
(-0.723384 -0.506646 0)
(-0.704849 -0.536536 0)
(-0.666804 -0.548177 0)
(-0.605662 -0.534965 0)
(-0.521364 -0.492478 0)
(-0.418874 -0.420877 0)
(-0.308423 -0.326718 0)
(-0.203739 -0.222882 0)
(-0.117975 -0.125392 0)
(-0.0584532 -0.0473681 0)
(-0.023642 0.00624948 0)
(-0.00618774 0.0377662 0)
(0.00068039 0.0503948 0)
(0.00181036 0.0453585 0)
(0.000485843 0.0218749 0)
(-0.00335775 0.0148762 0)
(-0.0283497 0.0528144 0)
(-0.063963 0.102334 0)
(-0.108201 0.161513 0)
(-0.16027 0.226356 0)
(-0.219098 0.292803 0)
(-0.282164 0.356346 0)
(-0.345953 0.41206 0)
(-0.406761 0.455611 0)
(-0.461421 0.484176 0)
(-0.507705 0.496771 0)
(-0.544458 0.494063 0)
(-0.57158 0.477967 0)
(-0.589904 0.451158 0)
(-0.600949 0.416591 0)
(-0.606593 0.377054 0)
(-0.608715 0.334844 0)
(-0.608923 0.291602 0)
(-0.608397 0.248316 0)
(-0.607888 0.205453 0)
(-0.607784 0.163127 0)
(-0.608222 0.121249 0)
(-0.609203 0.0796594 0)
(-0.610667 0.0381845 0)
(-0.612557 -0.0033449 0)
(-0.61492 -0.0450577 0)
(-0.617823 -0.0870486 0)
(-0.621408 -0.129424 0)
(-0.625911 -0.172349 0)
(-0.631671 -0.216057 0)
(-0.639096 -0.260878 0)
(-0.64854 -0.307223 0)
(-0.660087 -0.35548 0)
(-0.673203 -0.405707 0)
(-0.686251 -0.457131 0)
(-0.695992 -0.50748 0)
(-0.69736 -0.552334 0)
(-0.683862 -0.584892 0)
(-0.648864 -0.59659 0)
(-0.587722 -0.578908 0)
(-0.500269 -0.526296 0)
(-0.39272 -0.439523 0)
(-0.277813 -0.328017 0)
(-0.172118 -0.209257 0)
(-0.0902931 -0.103556 0)
(-0.0383196 -0.0252635 0)
(-0.0113355 0.0229151 0)
(-0.000153566 0.0453718 0)
(0.00229755 0.0453574 0)
(0.000720685 0.0231576 0)
(-0.00444348 0.032385 0)
(-0.034536 0.086131 0)
(-0.0751401 0.144917 0)
(-0.123722 0.211866 0)
(-0.178948 0.283344 0)
(-0.239064 0.35422 0)
(-0.300966 0.418937 0)
(-0.360961 0.472188 0)
(-0.415584 0.509999 0)
(-0.462198 0.530408 0)
(-0.499273 0.533505 0)
(-0.526455 0.521069 0)
(-0.544481 0.496016 0)
(-0.554931 0.461785 0)
(-0.559855 0.421744 0)
(-0.561339 0.378712 0)
(-0.561158 0.334701 0)
(-0.560577 0.290893 0)
(-0.560333 0.247795 0)
(-0.560737 0.205474 0)
(-0.561815 0.163767 0)
(-0.563456 0.122444 0)
(-0.565504 0.0812922 0)
(-0.567801 0.040145 0)
(-0.57024 -0.00111432 0)
(-0.572828 -0.042544 0)
(-0.575587 -0.0841721 0)
(-0.57857 -0.126019 0)
(-0.581936 -0.168129 0)
(-0.585958 -0.210604 0)
(-0.591038 -0.253666 0)
(-0.597713 -0.297718 0)
(-0.606595 -0.343362 0)
(-0.618165 -0.391301 0)
(-0.632327 -0.442014 0)
(-0.647737 -0.495096 0)
(-0.661059 -0.548277 0)
(-0.666535 -0.596411 0)
(-0.656409 -0.631045 0)
(-0.622589 -0.641272 0)
(-0.55949 -0.61634 0)
(-0.467311 -0.549813 0)
(-0.354351 -0.444131 0)
(-0.236692 -0.31337 0)
(-0.133898 -0.181253 0)
(-0.0609062 -0.0724148 0)
(-0.0200549 -0.000193251 0)
(-0.00226735 0.0369488 0)
(0.00247044 0.0446337 0)
(0.000940119 0.0247559 0)
(-0.00528817 0.053272 0)
(-0.0394225 0.123907 0)
(-0.0836914 0.19143 0)
(-0.134995 0.265059 0)
(-0.191459 0.341491 0)
(-0.250784 0.414572 0)
(-0.309554 0.478009 0)
(-0.364172 0.526506 0)
(-0.411609 0.556759 0)
(-0.449873 0.567865 0)
(-0.478214 0.561111 0)
(-0.497109 0.539422 0)
(-0.508053 0.506639 0)
(-0.513173 0.466745 0)
(-0.514731 0.423201 0)
(-0.514683 0.378527 0)
(-0.514418 0.334206 0)
(-0.514705 0.290851 0)
(-0.515815 0.248504 0)
(-0.517697 0.206922 0)
(-0.520159 0.165794 0)
(-0.522983 0.124851 0)
(-0.525989 0.0839048 0)
(-0.529032 0.0428383 0)
(-0.532029 0.0015942 0)
(-0.534983 -0.03984 0)
(-0.537911 -0.0814515 0)
(-0.540804 -0.123213 0)
(-0.54372 -0.165088 0)
(-0.546776 -0.207064 0)
(-0.55019 -0.249194 0)
(-0.554355 -0.291679 0)
(-0.559896 -0.334959 0)
(-0.56765 -0.379807 0)
(-0.57847 -0.427283 0)
(-0.592722 -0.47837 0)
(-0.609403 -0.533088 0)
(-0.625079 -0.589092 0)
(-0.633181 -0.640188 0)
(-0.624484 -0.675698 0)
(-0.589373 -0.681757 0)
(-0.521692 -0.645178 0)
(-0.42293 -0.559391 0)
(-0.304702 -0.430485 0)
(-0.18731 -0.279819 0)
(-0.092844 -0.138944 0)
(-0.0339613 -0.0351776 0)
(-0.00650179 0.0231798 0)
(0.00201328 0.0423174 0)
(0.00111664 0.0264195 0)
(-0.00577047 0.0766315 0)
(-0.042597 0.164809 0)
(-0.0890433 0.240327 0)
(-0.141402 0.319318 0)
(-0.197321 0.398896 0)
(-0.254139 0.47206 0)
(-0.308379 0.532116 0)
(-0.356744 0.574116 0)
(-0.396759 0.595668 0)
(-0.427151 0.597074 0)
(-0.447958 0.580877 0)
(-0.460406 0.551092 0)
(-0.466553 0.51228 0)
(-0.468768 0.468645 0)
(-0.469194 0.423395 0)
(-0.469391 0.378487 0)
(-0.470225 0.334759 0)
(-0.471976 0.29228 0)
(-0.474554 0.250744 0)
(-0.477708 0.209751 0)
(-0.481179 0.168967 0)
(-0.484768 0.12817 0)
(-0.488351 0.0872371 0)
(-0.491853 0.0461104 0)
(-0.495237 0.00477405 0)
(-0.498535 -0.0367636 0)
(-0.501773 -0.0784785 0)
(-0.504922 -0.12034 0)
(-0.507973 -0.162294 0)
(-0.510923 -0.204276 0)
(-0.513806 -0.246225 0)
(-0.516765 -0.288134 0)
(-0.520138 -0.330154 0)
(-0.524575 -0.372748 0)
(-0.531084 -0.416866 0)
(-0.540883 -0.46396 0)
(-0.55482 -0.515577 0)
(-0.57222 -0.572174 0)
(-0.589396 -0.631139 0)
(-0.598666 -0.684664 0)
(-0.589076 -0.71896 0)
(-0.549602 -0.716473 0)
(-0.474291 -0.661771 0)
(-0.367361 -0.549939 0)
(-0.245347 -0.394029 0)
(-0.133353 -0.226072 0)
(-0.0540418 -0.0858244 0)
(-0.013349 0.00164667 0)
(0.000774159 0.0372278 0)
(0.0012541 0.0277897 0)
(-0.00581481 0.10133 0)
(-0.0438267 0.207357 0)
(-0.0909316 0.29003 0)
(-0.142774 0.372995 0)
(-0.196628 0.453978 0)
(-0.249659 0.525384 0)
(-0.29853 0.580439 0)
(-0.340377 0.614808 0)
(-0.373348 0.627192 0)
(-0.396886 0.619178 0)
(-0.411741 0.594539 0)
(-0.419711 0.558213 0)
(-0.42314 0.51518 0)
(-0.424331 0.46952 0)
(-0.425058 0.423901 0)
(-0.426358 0.37958 0)
(-0.428594 0.336769 0)
(-0.431679 0.29513 0)
(-0.435331 0.254173 0)
(-0.439254 0.21348 0)
(-0.443232 0.172786 0)
(-0.447148 0.131953 0)
(-0.45096 0.090929 0)
(-0.454657 0.0497025 0)
(-0.458245 0.00827633 0)
(-0.461784 -0.0333394 0)
(-0.465314 -0.0751292 0)
(-0.468808 -0.117084 0)
(-0.472239 -0.159168 0)
(-0.475556 -0.201325 0)
(-0.478698 -0.243462 0)
(-0.481617 -0.285471 0)
(-0.484354 -0.32728 0)
(-0.487164 -0.368979 0)
(-0.490691 -0.411046 0)
(-0.496108 -0.454616 0)
(-0.504999 -0.501601 0)
(-0.51867 -0.554198 0)
(-0.536646 -0.613259 0)
(-0.55468 -0.675449 0)
(-0.563521 -0.730339 0)
(-0.550195 -0.759798 0)
(-0.502655 -0.741977 0)
(-0.416582 -0.660323 0)
(-0.301094 -0.515057 0)
(-0.179338 -0.331227 0)
(-0.0805219 -0.154852 0)
(-0.0231572 -0.0304513 0)
(-0.00128043 0.0280328 0)
(0.00137192 0.0284892 0)
(-0.0053979 0.126125 0)
(-0.0430555 0.250043 0)
(-0.0893755 0.33905 0)
(-0.139322 0.424665 0)
(-0.18991 0.505529 0)
(-0.238304 0.573734 0)
(-0.281452 0.622699 0)
(-0.316997 0.648907 0)
(-0.34371 0.652255 0)
(-0.361684 0.635623 0)
(-0.372229 0.603896 0)
(-0.377475 0.562679 0)
(-0.379778 0.517045 0)
(-0.381135 0.470647 0)
(-0.382829 0.425447 0)
(-0.385392 0.382003 0)
(-0.388806 0.340032 0)
(-0.392787 0.298961 0)
(-0.397014 0.258266 0)
(-0.401246 0.217609 0)
(-0.40536 0.176825 0)
(-0.409328 0.135864 0)
(-0.413173 0.0947257 0)
(-0.416924 0.0534202 0)
(-0.420607 0.0119521 0)
(-0.424293 -0.0296778 0)
(-0.428035 -0.0714685 0)
(-0.431815 -0.113435 0)
(-0.43561 -0.155571 0)
(-0.439378 -0.197852 0)
(-0.443038 -0.240215 0)
(-0.446476 -0.282549 0)
(-0.449564 -0.324702 0)
(-0.452247 -0.366528 0)
(-0.454694 -0.408046 0)
(-0.457547 -0.449754 0)
(-0.462147 -0.493041 0)
(-0.470461 -0.540408 0)
(-0.484221 -0.594801 0)
(-0.502919 -0.657244 0)
(-0.52118 -0.722793 0)
(-0.527494 -0.776818 0)
(-0.506717 -0.795303 0)
(-0.44689 -0.752104 0)
(-0.347738 -0.632567 0)
(-0.225996 -0.448195 0)
(-0.112349 -0.242569 0)
(-0.0364039 -0.0761129 0)
(-0.00422431 0.0132307 0)
(0.00146154 0.0281083 0)
(-0.00454439 0.149777 0)
(-0.0403759 0.29143 0)
(-0.0846168 0.386065 0)
(-0.131527 0.473183 0)
(-0.177978 0.552714 0)
(-0.221265 0.616723 0)
(-0.258713 0.659037 0)
(-0.28849 0.677087 0)
(-0.309936 0.672002 0)
(-0.323671 0.647884 0)
(-0.331365 0.610531 0)
(-0.33524 0.56593 0)
(-0.337439 0.518946 0)
(-0.33953 0.472611 0)
(-0.342304 0.428146 0)
(-0.3459 0.385515 0)
(-0.35008 0.344114 0)
(-0.35451 0.303292 0)
(-0.358924 0.262598 0)
(-0.363182 0.221807 0)
(-0.367251 0.180856 0)
(-0.371165 0.139752 0)
(-0.374985 0.0985225 0)
(-0.378755 0.05718 0)
(-0.382498 0.01572 0)
(-0.386285 -0.0258702 0)
(-0.390173 -0.0676017 0)
(-0.394153 -0.109507 0)
(-0.398209 -0.151604 0)
(-0.402322 -0.193898 0)
(-0.406433 -0.236372 0)
(-0.410441 -0.278965 0)
(-0.414192 -0.321549 0)
(-0.417494 -0.363918 0)
(-0.420201 -0.405848 0)
(-0.422407 -0.44729 0)
(-0.424776 -0.488808 0)
(-0.428878 -0.532176 0)
(-0.437124 -0.580688 0)
(-0.451577 -0.638117 0)
(-0.471208 -0.70512 0)
(-0.488619 -0.773506 0)
(-0.489293 -0.822064 0)
(-0.456339 -0.819446 0)
(-0.380137 -0.737031 0)
(-0.268002 -0.56848 0)
(-0.146954 -0.346022 0)
(-0.0534057 -0.137554 0)
(-0.0082233 -0.0088124 0)
(0.00147495 0.0261909 0)
(-0.00331684 0.171142 0)
(-0.0359897 0.330222 0)
(-0.0770483 0.429965 0)
(-0.120034 0.517689 0)
(-0.161773 0.595029 0)
(-0.199784 0.654292 0)
(-0.231813 0.689868 0)
(-0.25652 0.700194 0)
(-0.273724 0.687596 0)
(-0.284408 0.65726 0)
(-0.290398 0.615662 0)
(-0.293804 0.568896 0)
(-0.296425 0.521405 0)
(-0.299373 0.475518 0)
(-0.303037 0.431783 0)
(-0.307306 0.389731 0)
(-0.311864 0.348599 0)
(-0.316419 0.307774 0)
(-0.320802 0.266921 0)
(-0.324965 0.22593 0)
(-0.328941 0.184806 0)
(-0.332797 0.143591 0)
(-0.336605 0.102312 0)
(-0.340407 0.0609749 0)
(-0.344216 0.0195599 0)
(-0.34809 -0.0219575 0)
(-0.352093 -0.063596 0)
(-0.356219 -0.105401 0)
(-0.360454 -0.147401 0)
(-0.364792 -0.189624 0)
(-0.369205 -0.232089 0)
(-0.373632 -0.274786 0)
(-0.377956 -0.317653 0)
(-0.38199 -0.36054 0)
(-0.385483 -0.403184 0)
(-0.38821 -0.445271 0)
(-0.39022 -0.486701 0)
(-0.392267 -0.5282 0)
(-0.396263 -0.572171 0)
(-0.40512 -0.623022 0)
(-0.420995 -0.685273 0)
(-0.441501 -0.757928 0)
(-0.455966 -0.826731 0)
(-0.446361 -0.860875 0)
(-0.395729 -0.821527 0)
(-0.300799 -0.683229 0)
(-0.18079 -0.459536 0)
(-0.0736141 -0.215128 0)
(-0.0135241 -0.0398826 0)
(0.00139056 0.0222559 0)
(-0.00180419 0.18924 0)
(-0.0301684 0.3653 0)
(-0.0671432 0.469865 0)
(-0.105554 0.557587 0)
(-0.142253 0.632234 0)
(-0.175032 0.686608 0)
(-0.202064 0.715751 0)
(-0.222441 0.719098 0)
(-0.236337 0.700078 0)
(-0.244929 0.664776 0)
(-0.250019 0.620114 0)
(-0.253465 0.572073 0)
(-0.256671 0.524555 0)
(-0.260349 0.479207 0)
(-0.264607 0.436036 0)
(-0.269213 0.394297 0)
(-0.273867 0.353194 0)
(-0.278363 0.312211 0)
(-0.282623 0.271136 0)
(-0.286669 0.229946 0)
(-0.290565 0.188687 0)
(-0.294389 0.147406 0)
(-0.298209 0.10612 0)
(-0.302062 0.0648216 0)
(-0.305947 0.0234776 0)
(-0.309906 -0.0179469 0)
(-0.314015 -0.0594746 0)
(-0.31827 -0.10116 0)
(-0.322648 -0.143038 0)
(-0.327151 -0.18515 0)
(-0.331767 -0.227531 0)
(-0.336465 -0.270209 0)
(-0.34118 -0.313182 0)
(-0.345781 -0.356386 0)
(-0.350048 -0.399636 0)
(-0.353675 -0.442593 0)
(-0.356374 -0.484842 0)
(-0.358195 -0.526277 0)
(-0.360099 -0.567997 0)
(-0.364504 -0.613451 0)
(-0.374864 -0.668516 0)
(-0.392866 -0.737869 0)
(-0.413322 -0.816194 0)
(-0.420868 -0.878814 0)
(-0.39463 -0.882605 0)
(-0.3215 -0.784935 0)
(-0.210289 -0.576047 0)
(-0.0954303 -0.306796 0)
(-0.0203515 -0.0816573 0)
(0.00125071 0.0158196 0)
(-0.000110584 0.203294 0)
(-0.0232183 0.395742 0)
(-0.0553995 0.505093 0)
(-0.0887872 0.592497 0)
(-0.120302 0.664283 0)
(-0.148027 0.713969 0)
(-0.170537 0.737284 0)
(-0.187274 0.734597 0)
(-0.198635 0.710293 0)
(-0.205842 0.671163 0)
(-0.210529 0.62437 0)
(-0.21423 0.575639 0)
(-0.21797 0.528306 0)
(-0.222151 0.483424 0)
(-0.226714 0.440602 0)
(-0.231403 0.398953 0)
(-0.235982 0.357725 0)
(-0.240333 0.316519 0)
(-0.244448 0.275223 0)
(-0.248387 0.233871 0)
(-0.252227 0.192524 0)
(-0.256038 0.151221 0)
(-0.259882 0.109963 0)
(-0.263788 0.0687303 0)
(-0.267749 0.0274784 0)
(-0.271792 -0.0138366 0)
(-0.276004 -0.0552386 0)
(-0.280388 -0.0967921 0)
(-0.284907 -0.138537 0)
(-0.289564 -0.180518 0)
(-0.294352 -0.222782 0)
(-0.299256 -0.265375 0)
(-0.304241 -0.308334 0)
(-0.309233 -0.351662 0)
(-0.314085 -0.395279 0)
(-0.318539 -0.438947 0)
(-0.322231 -0.482219 0)
(-0.324829 -0.524576 0)
(-0.326471 -0.566032 0)
(-0.328518 -0.608442 0)
(-0.334112 -0.656941 0)
(-0.347067 -0.719071 0)
(-0.367381 -0.797764 0)
(-0.384993 -0.878359 0)
(-0.379108 -0.920259 0)
(-0.329168 -0.868486 0)
(-0.232696 -0.68854 0)
(-0.116697 -0.408563 0)
(-0.0287057 -0.135286 0)
(0.00111781 0.00637008 0)
(0.00165427 0.212745 0)
(-0.0154559 0.420816 0)
(-0.0422993 0.535155 0)
(-0.0703776 0.622211 0)
(-0.0966928 0.691254 0)
(-0.119605 0.736724 0)
(-0.138049 0.755027 0)
(-0.151731 0.747351 0)
(-0.161151 0.718869 0)
(-0.167443 0.676889 0)
(-0.171989 0.628659 0)
(-0.175973 0.579584 0)
(-0.180094 0.532475 0)
(-0.184539 0.487914 0)
(-0.189176 0.445245 0)
(-0.19378 0.403533 0)
(-0.198192 0.362106 0)
(-0.202365 0.32067 0)
(-0.206336 0.279187 0)
(-0.210181 0.237721 0)
(-0.213972 0.196332 0)
(-0.217771 0.155042 0)
(-0.22163 0.11384 0)
(-0.225582 0.0726962 0)
(-0.22961 0.0315577 0)
(-0.233726 -0.00962789 0)
(-0.238036 -0.0508847 0)
(-0.242557 -0.0922898 0)
(-0.247227 -0.133887 0)
(-0.252053 -0.175725 0)
(-0.257024 -0.217855 0)
(-0.26213 -0.260331 0)
(-0.267351 -0.30321 0)
(-0.272645 -0.346539 0)
(-0.277927 -0.390319 0)
(-0.283021 -0.434435 0)
(-0.287619 -0.478553 0)
(-0.291298 -0.522083 0)
(-0.293728 -0.564435 0)
(-0.295287 -0.606022 0)
(-0.298014 -0.650167 0)
(-0.305948 -0.704507 0)
(-0.322547 -0.777533 0)
(-0.343854 -0.86575 0)
(-0.352713 -0.937223 0)
(-0.324607 -0.931495 0)
(-0.246493 -0.791147 0)
(-0.135361 -0.51538 0)
(-0.0381964 -0.200541 0)
(0.000969439 -0.00656215 0)
(0.00338441 0.217282 0)
(-0.00719012 0.439933 0)
(-0.0282914 0.559708 0)
(-0.0508882 0.646642 0)
(-0.0720646 0.713291 0)
(-0.0904154 0.755217 0)
(-0.10519 0.769457 0)
(-0.116274 0.757869 0)
(-0.124169 0.726237 0)
(-0.129829 0.682217 0)
(-0.134332 0.633042 0)
(-0.138528 0.583798 0)
(-0.142851 0.53686 0)
(-0.147357 0.492465 0)
(-0.1519 0.449801 0)
(-0.156313 0.407941 0)
(-0.160509 0.366296 0)
(-0.16449 0.324657 0)
(-0.168317 0.283033 0)
(-0.172066 0.241499 0)
(-0.1758 0.200105 0)
(-0.179572 0.158858 0)
(-0.183429 0.117736 0)
(-0.187406 0.0767034 0)
(-0.191488 0.0357031 0)
(-0.19566 -0.00532616 0)
(-0.20006 -0.0464117 0)
(-0.204723 -0.0876427 0)
(-0.20956 -0.12907 0)
(-0.214574 -0.170747 0)
(-0.219755 -0.212726 0)
(-0.225091 -0.255065 0)
(-0.230566 -0.29783 0)
(-0.236154 -0.341091 0)
(-0.241803 -0.384902 0)
(-0.247404 -0.429243 0)
(-0.252739 -0.473927 0)
(-0.257438 -0.518472 0)
(-0.261028 -0.562109 0)
(-0.263274 -0.604329 0)
(-0.265051 -0.646546 0)
(-0.269448 -0.694699 0)
(-0.281251 -0.759465 0)
(-0.301653 -0.846948 0)
(-0.319401 -0.937897 0)
(-0.309849 -0.974037 0)
(-0.251431 -0.879749 0)
(-0.149939 -0.622112 0)
(-0.0480927 -0.275659 0)
(0.000665086 -0.0234222 0)
(0.00493834 0.216718 0)
(0.00127375 0.452754 0)
(-0.0137752 0.578494 0)
(-0.0308001 0.665775 0)
(-0.0469308 0.730559 0)
(-0.060946 0.769748 0)
(-0.0723601 0.780945 0)
(-0.0811725 0.766512 0)
(-0.0878062 0.732661 0)
(-0.092978 0.687263 0)
(-0.097439 0.637487 0)
(-0.101734 0.588143 0)
(-0.106094 0.541283 0)
(-0.110503 0.49692 0)
(-0.114837 0.454163 0)
(-0.118993 0.412118 0)
(-0.122942 0.370272 0)
(-0.126718 0.328471 0)
(-0.13039 0.286754 0)
(-0.134027 0.245193 0)
(-0.137684 0.203825 0)
(-0.141407 0.162647 0)
(-0.145238 0.121629 0)
(-0.149219 0.0807314 0)
(-0.153338 0.0398997 0)
(-0.157549 -0.000935819 0)
(-0.162024 -0.0418197 0)
(-0.166829 -0.082841 0)
(-0.171845 -0.124069 0)
(-0.177068 -0.165556 0)
(-0.182488 -0.20736 0)
(-0.188089 -0.24954 0)
(-0.193857 -0.292163 0)
(-0.199771 -0.335313 0)
(-0.205797 -0.379074 0)
(-0.211863 -0.423495 0)
(-0.217822 -0.468504 0)
(-0.223398 -0.513777 0)
(-0.228151 -0.558616 0)
(-0.2316 -0.602108 0)
(-0.233792 -0.644241 0)
(-0.236514 -0.688616 0)
(-0.244205 -0.74529 0)
(-0.261244 -0.826634 0)
(-0.282822 -0.927237 0)
(-0.287553 -0.998041 0)
(-0.248283 -0.952096 0)
(-0.159695 -0.724262 0)
(-0.0575607 -0.357877 0)
(-4.93414e-06 -0.0446362 0)
(0.00616107 0.211279 0)
(0.00957269 0.458835 0)
(0.000924627 0.591422 0)
(-0.0105135 0.679621 0)
(-0.0216978 0.74321 0)
(-0.0315532 0.780547 0)
(-0.039821 0.789747 0)
(-0.0465627 0.773503 0)
(-0.0520758 0.738281 0)
(-0.0568042 0.692055 0)
(-0.0611732 0.641919 0)
(-0.065452 0.592485 0)
(-0.0697163 0.545604 0)
(-0.073913 0.501164 0)
(-0.0779591 0.458256 0)
(-0.081812 0.416025 0)
(-0.0854865 0.374011 0)
(-0.0890372 0.332097 0)
(-0.0925314 0.290331 0)
(-0.0960308 0.248779 0)
(-0.0995848 0.207468 0)
(-0.103232 0.166386 0)