/*--------------------------------*- C++ -*----------------------------------*\
  =========                 |
  \\      /  F ield         | OpenFOAM: The Open Source CFD Toolbox
   \\    /   O peration     | Website:  https://openfoam.org
    \\  /    A nd           | Version:  7
     \\/     M anipulation  |
\*---------------------------------------------------------------------------*/
FoamFile
{
    version     2.0;
    format      ascii;
    class       volScalarField;
    location    "1050";
    object      p;
}
// * * * * * * * * * * * * * * * * * * * * * * * * * * * * * * * * * * * * * //

dimensions      [0 2 -2 0 0 0 0];

internalField   nonuniform List<scalar> 
2500
(
3.80834e-08
7.09993e-05
-8.97114e-06
-0.000307879
-0.000782358
-0.00136998
-0.00203058
-0.00275961
-0.0035828
-0.00454081
-0.0056737
-0.00701136
-0.00857071
-0.0103515
-0.0123302
-0.0144527
-0.0166269
-0.0187211
-0.0205703
-0.0219925
-0.0228127
-0.0228917
-0.022154
-0.0206159
-0.0184036
-0.015743
-0.0129558
-0.0104593
-0.00871545
-0.00816211
-0.00913232
-0.011763
-0.0159418
-0.0213733
-0.027598
-0.0340544
-0.0402135
-0.0456746
-0.0502064
-0.0537339
-0.0563072
-0.058061
-0.0591699
-0.0598099
-0.0601329
-0.060255
-0.0602541
-0.0601728
-0.0600335
-0.0598943
-6.91177e-05
3.68963e-06
-8.01672e-05
-0.000376704
-0.000829174
-0.00137342
-0.00197431
-0.0026333
-0.00337899
-0.00425169
-0.00529024
-0.00652458
-0.00797541
-0.00965048
-0.0115381
-0.0136016
-0.0157699
-0.0179315
-0.0199337
-0.0215925
-0.0227156
-0.0231331
-0.022731
-0.0214852
-0.0194906
-0.0169642
-0.0142432
-0.011763
-0.0100043
-0.00942432
-0.0103716
-0.0130054
-0.0172418
-0.0227314
-0.0289719
-0.0354153
-0.041507
-0.0468064
-0.0510739
-0.0542826
-0.0565502
-0.0580582
-0.0590003
-0.059549
-0.0598407
-0.0599724
-0.0600063
-0.0599718
-0.0598703
-0.0597386
-1.91187e-05
4.95509e-05
-5.74202e-05
-0.000379963
-0.000832446
-0.0013391
-0.00186976
-0.00243723
-0.00308258
-0.00385336
-0.00479369
-0.00594393
-0.00734213
-0.00902273
-0.0110057
-0.0132799
-0.0157851
-0.0183995
-0.0209406
-0.0231819
-0.0248843
-0.0258336
-0.0258784
-0.0249675
-0.0231933
-0.0207829
-0.0180734
-0.0154987
-0.0135513
-0.0127118
-0.0133619
-0.0157003
-0.0196819
-0.0250052
-0.0311613
-0.0375289
-0.0435301
-0.0487226
-0.0528259
-0.0557744
-0.057698
-0.0588425
-0.0594613
-0.0597592
-0.0598807
-0.0599156
-0.0599104
-0.0598749
-0.059779
-0.0596347
0.000228122
0.000266152
0.000101648
-0.000279725
-0.000755589
-0.00123697
-0.00170293
-0.00218559
-0.002746
-0.00345523
-0.00438668
-0.00561984
-0.00723957
-0.00932287
-0.0119126
-0.0149887
-0.0184479
-0.0221019
-0.0256947
-0.0289357
-0.0315405
-0.0332693
-0.0339576
-0.0335418
-0.0320935
-0.0298152
-0.0270197
-0.024128
-0.021635
-0.0200472
-0.0198025
-0.0211808
-0.024231
-0.0287401
-0.0342579
-0.0401812
-0.0458877
-0.0508582
-0.0547972
-0.0576148
-0.0593623
-0.0602513
-0.060563
-0.0605574
-0.0604189
-0.0602574
-0.0601232
-0.0600173
-0.0598873
-0.0597224
0.000707495
0.000677334
0.000418084
-4.41554e-05
-0.000555418
-0.00102937
-0.00146051
-0.00190884
-0.00247505
-0.00328114
-0.00446414
-0.00617193
-0.00854377
-0.0116752
-0.0155806
-0.020169
-0.025244
-0.0305246
-0.0356804
-0.0403703
-0.0442796
-0.0471511
-0.0488067
-0.0491617
-0.0482453
-0.0462035
-0.0433017
-0.0399248
-0.0365445
-0.0336764
-0.0318131
-0.0313426
-0.0324666
-0.0351421
-0.0390691
-0.0437424
-0.0485617
-0.0529664
-0.0565562
-0.0591439
-0.0607631
-0.0615699
-0.0617557
-0.0615706
-0.0612339
-0.0608887
-0.0606088
-0.0604072
-0.0602309
-0.060054
0.00146276
0.00132867
0.000949229
0.000397556
-0.000168661
-0.000675249
-0.0011469
-0.00169646
-0.00249322
-0.00374337
-0.00567256
-0.00849488
-0.012366
-0.0173368
-0.0233275
-0.0301297
-0.0374342
-0.0448694
-0.052042
-0.0585718
-0.0641217
-0.0684215
-0.071283
-0.0726071
-0.0723923
-0.0707233
-0.0677977
-0.0639357
-0.0595454
-0.0551031
-0.0511109
-0.0480399
-0.0462564
-0.0459471
-0.0470655
-0.0493283
-0.0522728
-0.0553696
-0.0581514
-0.0603083
-0.0617199
-0.0624347
-0.0626168
-0.0624288
-0.0620425
-0.0616168
-0.0612511
-0.0609827
-0.0607774
-0.060606
0.00253237
0.00226949
0.00176065
0.00110908
0.000452077
-0.000167272
-0.000837126
-0.00175318
-0.00318491
-0.00544247
-0.00882778
-0.01357
-0.0197661
-0.027349
-0.0360939
-0.0456524
-0.0556002
-0.0654841
-0.074862
-0.0833339
-0.0905652
-0.0963001
-0.100366
-0.102671
-0.103212
-0.102039
-0.0992778
-0.0951625
-0.0899965
-0.0841527
-0.0780621
-0.0721915
-0.0669993
-0.0628744
-0.0600686
-0.0586395
-0.0584288
-0.0590976
-0.0602185
-0.0613896
-0.062323
-0.0628791
-0.0630567
-0.0629438
-0.0626442
-0.0622694
-0.0619188
-0.0616501
-0.0614544
-0.0613092
0.00392267
0.00352367
0.00288459
0.00211084
0.00129549
0.000410767
-0.000728652
-0.00243197
-0.00508426
-0.00907956
-0.0147334
-0.0222017
-0.0314375
-0.0421962
-0.0540786
-0.0665911
-0.0792068
-0.091416
-0.102763
-0.112872
-0.121455
-0.128313
-0.13332
-0.136417
-0.137621
-0.136991
-0.1346
-0.130593
-0.125154
-0.118514
-0.11096
-0.102843
-0.0945752
-0.0866129
-0.079417
-0.0733882
-0.0687905
-0.0656873
-0.0639219
-0.0631618
-0.063003
-0.0630845
-0.0631614
-0.0631273
-0.0629781
-0.0627553
-0.0625216
-0.0623307
-0.0621906
-0.0620899
0.00557888
0.00505067
0.00427638
0.00333793
0.00223967
0.000843331
-0.00116329
-0.00421619
-0.00879266
-0.0153009
-0.0239705
-0.0347867
-0.0474879
-0.0616163
-0.0765942
-0.0918049
-0.10666
-0.120649
-0.133362
-0.144502
-0.153871
-0.16136
-0.16691
-0.170502
-0.172181
-0.172044
-0.170136
-0.166534
-0.161325
-0.154609
-0.146513
-0.137208
-0.12694
-0.116055
-0.10502
-0.0944037
-0.0848262
-0.0768467
-0.0708271
-0.066818
-0.0645412
-0.0634989
-0.0631576
-0.0631025
-0.0631032
-0.0630837
-0.0630391
-0.0629924
-0.0629474
-0.0629024
0.00735052
0.0067073
0.00578663
0.00460152
0.00302313
0.000772545
-0.00260232
-0.00764227
-0.0148467
-0.0245327
-0.0367361
-0.0511908
-0.067381
-0.0846357
-0.102234
-0.119497
-0.135849
-0.150852
-0.164205
-0.175727
-0.185331
-0.192997
-0.198733
-0.202554
-0.204525
-0.20477
-0.203326
-0.200234
-0.195527
-0.189225
-0.181337
-0.171878
-0.160896
-0.148522
-0.13503
-0.120898
-0.106834
-0.0937326
-0.0825141
-0.0738859
-0.0680981
-0.0648505
-0.0634416
-0.0630801
-0.0631554
-0.0633369
-0.0635171
-0.0636551
-0.0637302
-0.0637449
0.00897954
0.00824029
0.00713776
0.005573
0.00324884
-0.000267752
-0.0055521
-0.0131863
-0.0235879
-0.0368695
-0.052785
-0.070774
-0.0900711
-0.10984
-0.129296
-0.147788
-0.164841
-0.180151
-0.193557
-0.205001
-0.21449
-0.222071
-0.227791
-0.23169
-0.233831
-0.234343
-0.233257
-0.230605
-0.226405
-0.220649
-0.213298
-0.204285
-0.193524
-0.180946
-0.16657
-0.150592
-0.133508
-0.116184
-0.0998288
-0.0857807
-0.0751109
-0.0682133
-0.0646439
-0.0633752
-0.0633026
-0.0636458
-0.0640445
-0.0643803
-0.0645853
-0.0646602
0.0101125
0.00928204
0.00793051
0.00580882
0.00243228
-0.00277542
-0.0104621
-0.0211564
-0.0350813
-0.0520516
-0.0714922
-0.0925543
-0.11428
-0.13576
-0.156248
-0.175215
-0.192347
-0.207499
-0.220642
-0.231811
-0.241074
-0.248505
-0.254168
-0.258102
-0.260361
-0.261055
-0.260209
-0.257855
-0.254014
-0.248684
-0.241831
-0.233378
-0.223199
-0.211127
-0.196994
-0.18071
-0.162397
-0.142568
-0.122277
-0.1031
-0.0868339
-0.0748932
-0.0676953
-0.0644771
-0.0637608
-0.064127
-0.0647225
-0.0652504
-0.0655875
-0.0657256
0.0103204
0.00938466
0.007693
0.00481556
8.45443e-05
-0.00718271
-0.017629
-0.0316249
-0.0491038
-0.0695294
-0.0920006
-0.115439
-0.138793
-0.161189
-0.182018
-0.200932
-0.21779
-0.232591
-0.245398
-0.256301
-0.265384
-0.272722
-0.27837
-0.282361
-0.284725
-0.285556
-0.284864
-0.282682
-0.279036
-0.27394
-0.267383
-0.25932
-0.24965
-0.238211
-0.224775
-0.209088
-0.190957
-0.170436
-0.148077
-0.125163
-0.103709
-0.0860077
-0.0737369
-0.0671217
-0.0648449
-0.0648895
-0.0656341
-0.0663462
-0.0668237
-0.067037
0.00915881
0.00809233
0.00595882
0.00213839
-0.00419331
-0.0137681
-0.0271356
-0.0444167
-0.0651957
-0.0885808
-0.113398
-0.138436
-0.162661
-0.185337
-0.206045
-0.22463
-0.241101
-0.255553
-0.268097
-0.278832
-0.287836
-0.295166
-0.30086
-0.304937
-0.30741
-0.308355
-0.307772
-0.305689
-0.302134
-0.297128
-0.290681
-0.282781
-0.273381
-0.262375
-0.249577
-0.234714
-0.217454
-0.197508
-0.174871
-0.15017
-0.125011
-0.101949
-0.0837823
-0.0722602
-0.0670737
-0.0660991
-0.0668302
-0.0677347
-0.0683768
-0.0686906
0.00625124
0.00502162
0.00235403
-0.00255106
-0.0106315
-0.0226016
-0.0388369
-0.0591463
-0.0827499
-0.108441
-0.134862
-0.160779
-0.185273
-0.207803
-0.228155
-0.246334
-0.262452
-0.276647
-0.289039
-0.299712
-0.308721
-0.316102
-0.321878
-0.326054
-0.328632
-0.329678
-0.329186
-0.327177
-0.323673
-0.318695
-0.312261
-0.304381
-0.295046
-0.284215
-0.271784
-0.257558
-0.241224
-0.22237
-0.200612
-0.175904
-0.149037
-0.122082
-0.0982663
-0.0808186
-0.0711877
-0.0680667
-0.0683834
-0.069477
-0.0703198
-0.0707765
0.00135873
-6.46537e-05
-0.00332998
-0.00939129
-0.0192478
-0.0335332
-0.0523891
-0.0752872
-0.101109
-0.128409
-0.155745
-0.181958
-0.206311
-0.228469
-0.248394
-0.266203
-0.282057
-0.296099
-0.30843
-0.319107
-0.328161
-0.335613
-0.341473
-0.34574
-0.34841
-0.349542
-0.349133
-0.347194
-0.343742
-0.338791
-0.332358
-0.324455
-0.315094
-0.304273
-0.291964
-0.278072
-0.262393
-0.244568
-0.224097
-0.200497
-0.173731
-0.144895
-0.116759
-0.093334
-0.0780145
-0.0713167
-0.0704585
-0.0716387
-0.0727296
-0.0733853
-0.00557151
-0.00720975
-0.0110959
-0.0183054
-0.0298462
-0.0462211
-0.067307
-0.0922488
-0.119647
-0.147903
-0.175589
-0.201687
-0.22566
-0.247363
-0.266884
-0.2844
-0.300078
-0.314042
-0.326359
-0.337063
-0.346166
-0.353676
-0.359602
-0.36394
-0.366683
-0.367886
-0.367551
-0.365683
-0.362292
-0.35739
-0.350983
-0.343083
-0.333699
-0.322847
-0.310536
-0.296751
-0.281409
-0.264292
-0.24498
-0.222858
-0.197346
-0.168515
-0.138031
-0.109663
-0.0881879
-0.0765253
-0.0733741
-0.074322
-0.07572
-0.0766235
-0.0143916
-0.0162516
-0.0207385
-0.0290147
-0.0420498
-0.0601855
-0.0830316
-0.109445
-0.137817
-0.166486
-0.194105
-0.219831
-0.24332
-0.264569
-0.283745
-0.30104
-0.316604
-0.330524
-0.34284
-0.353564
-0.362697
-0.370243
-0.37621
-0.380596
-0.383393
-0.384651
-0.38438
-0.382579
-0.379256
-0.374418
-0.368069
-0.360213
-0.350854
-0.340004
-0.327682
-0.313913
-0.298699
-0.281963
-0.263456
-0.242663
-0.218821
-0.191282
-0.160439
-0.128943
-0.101866
-0.0843366
-0.0775898
-0.0776878
-0.0794148
-0.0806032
-0.0247737
-0.0268467
-0.0318766
-0.0410819
-0.0553568
-0.0748719
-0.0989917
-0.126341
-0.155177
-0.183846
-0.211123
-0.236345
-0.259326
-0.280162
-0.299053
-0.316181
-0.331659
-0.345544
-0.35785
-0.368574
-0.377714
-0.385272
-0.391259
-0.395675
-0.398511
-0.39981
-0.399594
-0.397852
-0.394595
-0.389828
-0.383553
-0.37577
-0.366481
-0.355689
-0.343408
-0.329666
-0.314505
-0.297946
-0.279907
-0.260076
-0.237788
-0.212098
-0.182398
-0.149823
-0.118602
-0.0951272
-0.0836115
-0.0819665
-0.0839195
-0.085437
-0.0362562
-0.0385184
-0.044007
-0.0539708
-0.0692025
-0.0897099
-0.11465
-0.142478
-0.171384
-0.199768
-0.226549
-0.251221
-0.273716
-0.29419
-0.312845
-0.329834
-0.345236
-0.359077
-0.371355
-0.382061
-0.391188
-0.398743
-0.404735
-0.409167
-0.412032
-0.413362
-0.41319
-0.411499
-0.408301
-0.403601
-0.397403
-0.389708
-0.380515
-0.369823
-0.357638
-0.34398
-0.328893
-0.312439
-0.294654
-0.27543
-0.254337
-0.230483
-0.202737
-0.170844
-0.137428
-0.108841
-0.0918671
-0.0874511
-0.0893246
-0.0912446
-0.0483033
-0.0507184
-0.0565662
-0.0671073
-0.0830161
-0.10416
-0.129534
-0.15748
-0.186178
-0.214109
-0.240326
-0.264454
-0.286508
-0.306668
-0.325121
-0.341985
-0.357308
-0.371094
-0.383328
-0.394
-0.403105
-0.410645
-0.416634
-0.421076
-0.423961
-0.425314
-0.425177
-0.423529
-0.420382
-0.415742
-0.409616
-0.402007
-0.392916
-0.382343
-0.370291
-0.35677
-0.341813
-0.325484
-0.307873
-0.289018
-0.268742
-0.246406
-0.220807
-0.190764
-0.157101
-0.12495
-0.102554
-0.0944215
-0.0957226
-0.0981381
-0.0603649
-0.0628859
-0.0689892
-0.0799331
-0.0962654
-0.117741
-0.143243
-0.171052
-0.199367
-0.226763
-0.252412
-0.276036
-0.297699
-0.317587
-0.335859
-0.352605
-0.367844
-0.381565
-0.393747
-0.404379
-0.413454
-0.420977
-0.426959
-0.431406
-0.434307
-0.435674
-0.435567
-0.433954
-0.430848
-0.426259
-0.420195
-0.412663
-0.403668
-0.393216
-0.381309
-0.367955
-0.353176
-0.337023
-0.319593
-0.301001
-0.281266
-0.260057
-0.236397
-0.208734
-0.176385
-0.142555
-0.115526
-0.103069
-0.103222
-0.106174
-0.0719265
-0.0745024
-0.080756
-0.0919456
-0.108486
-0.130053
-0.155458
-0.182963
-0.210808
-0.237655
-0.262771
-0.285945
-0.307269
-0.326919
-0.345029
-0.361661
-0.376814
-0.390466
-0.402595
-0.413185
-0.422232
-0.429738
-0.435711
-0.440161
-0.443074
-0.444451
-0.444367
-0.442781
-0.439708
-0.435159
-0.429145
-0.421677
-0.412766
-0.402423
-0.390656
-0.377474
-0.362896
-0.346961
-0.329753
-0.311409
-0.292066
-0.271658
-0.249563
-0.224305
-0.19426
-0.160564
-0.130266
-0.113407
-0.111879
-0.115292
-0.0825694
-0.0851062
-0.0914264
-0.102723
-0.119296
-0.140772
-0.165931
-0.19304
-0.220391
-0.246719
-0.271362
-0.294151
-0.315186
-0.33463
-0.352595
-0.369119
-0.38419
-0.397777
-0.409856
-0.42041
-0.429434
-0.436926
-0.442894
-0.447345
-0.450268
-0.451651
-0.451585
-0.450019
-0.446969
-0.442449
-0.436471
-0.429051
-0.420205
-0.409951
-0.398305
-0.385284
-0.370906
-0.355206
-0.338255
-0.320183
-0.301177
-0.281358
-0.260453
-0.237326
-0.210011
-0.177891
-0.145967
-0.125193
-0.121596
-0.125253
-0.0919761
-0.0943202
-0.10064
-0.111938
-0.128404
-0.149658
-0.174476
-0.201155
-0.228033
-0.253903
-0.278146
-0.300615
-0.321412
-0.340681
-0.358519
-0.374948
-0.389946
-0.403478
-0.415518
-0.426046
-0.435055
-0.442542
-0.448508
-0.452962
-0.455894
-0.457284
-0.457228
-0.455675
-0.452638
-0.448133
-0.442175
-0.434784
-0.425982
-0.415792
-0.40424
-0.391352
-0.377153
-0.36168
-0.344996
-0.32722
-0.308547
-0.289201
-0.269192
-0.247812
-0.223212
-0.193602
-0.161657
-0.137897
-0.132029
-0.135632
-0.0998984
-0.101914
-0.108126
-0.119347
-0.135604
-0.15654
-0.180966
-0.207217
-0.233673
-0.259161
-0.283084
-0.305302
-0.325908
-0.345036
-0.362768
-0.379118
-0.394059
-0.407552
-0.419568
-0.430085
-0.439092
-0.446583
-0.452556
-0.457017
-0.459958
-0.46136
-0.461309
-0.459763
-0.456729
-0.452224
-0.446268
-0.438882
-0.430096
-0.419939
-0.408447
-0.395655
-0.381598
-0.366322
-0.349888
-0.332408
-0.314072
-0.295147
-0.275833
-0.255822
-0.233658
-0.206991
-0.176354
-0.15077
-0.142636
-0.145891
-0.10617
-0.107769
-0.11373
-0.124798
-0.140779
-0.161338
-0.185346
-0.211188
-0.237278
-0.262463
-0.286145
-0.308176
-0.328638
-0.347657
-0.365308
-0.381601
-0.396505
-0.40998
-0.421991
-0.432515
-0.441537
-0.449047
-0.455039
-0.459514
-0.462467
-0.46388
-0.463832
-0.462291
-0.459249
-0.454731
-0.448758
-0.441353
-0.432552
-0.422392
-0.410917
-0.398175
-0.384211
-0.369082
-0.352856
-0.335644
-0.31763
-0.299096
-0.28035
-0.2614
-0.241274
-0.217586
-0.18919
-0.162967
-0.152781
-0.155459
-0.110723
-0.111849
-0.117411
-0.128233
-0.143875
-0.164005
-0.18757
-0.21302
-0.238803
-0.263766
-0.287293
-0.309213
-0.329589
-0.34854
-0.36614
-0.3824
-0.397292
-0.410771
-0.4228
-0.433351
-0.442405
-0.449947
-0.455967
-0.460459
-0.46342
-0.464838
-0.464786
-0.463249
-0.460191
-0.455645
-0.449635
-0.442188
-0.43334
-0.42314
-0.41164
-0.398897
-0.384969
-0.369923
-0.353841
-0.336841
-0.319107
-0.300925
-0.28266
-0.264536
-0.246044
-0.225105
-0.199475
-0.173669
-0.161832
-0.163796
-0.113587
-0.114207
-0.119234
-0.129698
-0.144937
-0.164581
-0.187666
-0.212718
-0.238223
-0.263019
-0.286458
-0.30833
-0.328675
-0.347602
-0.365189
-0.381451
-0.396362
-0.409879
-0.421961
-0.432573
-0.441692
-0.449298
-0.455376
-0.459918
-0.462916
-0.464356
-0.46428
-0.462712
-0.459605
-0.454993
-0.448905
-0.441374
-0.432445
-0.422165
-0.410594
-0.397796
-0.383841
-0.368809
-0.352796
-0.33593
-0.318405
-0.300514
-0.282652
-0.26518
-0.247961
-0.229401
-0.206716
-0.182167
-0.169218
-0.17042
-0.114868
-0.114985
-0.119356
-0.129321
-0.144071
-0.16316
-0.185709
-0.210334
-0.235565
-0.260228
-0.28363
-0.30551
-0.325875
-0.344823
-0.362433
-0.37873
-0.393692
-0.407276
-0.41944
-0.430142
-0.439353
-0.447048
-0.453207
-0.457815
-0.460864
-0.462343
-0.462269
-0.460682
-0.457524
-0.452836
-0.446651
-0.439002
-0.429934
-0.419507
-0.407788
-0.394856
-0.380797
-0.3657
-0.349669
-0.332847
-0.315441
-0.297755
-0.280209
-0.263246
-0.247005
-0.230404
-0.210591
-0.187889
-0.174442
-0.174912
-0.114744
-0.114394
-0.118012
-0.127305
-0.141445
-0.159883
-0.18181
-0.205944
-0.23087
-0.255405
-0.278801
-0.300735
-0.321171
-0.340186
-0.357861
-0.374229
-0.389277
-0.402965
-0.415245
-0.426073
-0.43541
-0.443225
-0.449491
-0.454189
-0.457306
-0.458831
-0.458764
-0.457156
-0.45394
-0.449159
-0.442853
-0.435056
-0.425816
-0.415199
-0.403279
-0.39014
-0.375878
-0.360599
-0.344429
-0.327536
-0.31014
-0.292555
-0.275223
-0.25864
-0.243138
-0.228088
-0.210908
-0.190404
-0.177078
-0.176909
-0.113442
-0.112697
-0.115501
-0.123927
-0.137286
-0.15494
-0.17612
-0.199651
-0.224193
-0.248562
-0.271954
-0.293973
-0.314523
-0.333654
-0.351441
-0.367924
-0.383101
-0.396934
-0.409373
-0.420368
-0.429871
-0.437843
-0.444251
-0.449068
-0.452274
-0.453856
-0.453803
-0.452174
-0.448894
-0.444006
-0.437553
-0.429574
-0.420118
-0.409255
-0.397067
-0.383645
-0.369096
-0.353537
-0.337112
-0.320003
-0.302463
-0.284843
-0.267606
-0.251274
-0.236312
-0.222446
-0.207569
-0.189403
-0.176758
-0.176086
-0.111228
-0.110186
-0.11216
-0.119523
-0.131885
-0.148574
-0.168834
-0.191598
-0.215617
-0.239728
-0.263075
-0.285183
-0.305881
-0.325177
-0.343129
-0.359781
-0.375137
-0.389163
-0.40181
-0.413019
-0.422735
-0.430908
-0.437496
-0.442464
-0.445787
-0.447446
-0.447425
-0.445774
-0.44243
-0.437423
-0.430801
-0.422606
-0.41289
-0.401725
-0.389198
-0.37541
-0.360473
-0.34452
-0.327712
-0.310253
-0.292425
-0.27461
-0.257312
-0.241088
-0.226485
-0.213478
-0.200535
-0.184679
-0.173158
-0.172144
-0.108379
-0.107154
-0.108335
-0.114468
-0.125583
-0.141074
-0.160193
-0.181966
-0.205259
-0.228954
-0.252163
-0.274326
-0.295189
-0.314695
-0.332872
-0.349757
-0.365354
-0.379634
-0.392546
-0.404025
-0.414006
-0.42243
-0.429244
-0.434406
-0.43788
-0.439643
-0.439675
-0.438008
-0.434602
-0.42947
-0.422659
-0.414217
-0.404197
-0.392673
-0.379736
-0.365492
-0.350064
-0.333594
-0.316264
-0.298303
-0.280026
-0.261856
-0.244341
-0.228075
-0.213653
-0.201205
-0.189816
-0.176114
-0.165992
-0.164804
-0.105163
-0.103869
-0.104346
-0.109145
-0.118761
-0.132772
-0.150471
-0.170974
-0.193269
-0.216319
-0.239229
-0.261368
-0.282383
-0.302136
-0.320604
-0.337798
-0.353715
-0.368325
-0.381573
-0.393389
-0.4037
-0.412434
-0.41953
-0.424933
-0.4286
-0.4305
-0.430609
-0.428944
-0.425483
-0.420221
-0.413206
-0.404489
-0.394123
-0.382184
-0.368764
-0.353974
-0.337943
-0.32083
-0.302832
-0.284209
-0.265315
-0.246616
-0.228716
-0.212256
-0.197873
-0.185701
-0.175469
-0.163666
-0.155015
-0.153791
-0.101816
-0.100549
-0.100455
-0.103909
-0.111813
-0.124035
-0.139983
-0.158875
-0.179833
-0.201933
-0.224309
-0.24628
-0.267395
-0.287415
-0.30624
-0.323833
-0.340168
-0.355204
-0.368879
-0.381118
-0.391837
-0.400954
-0.408395
-0.414097
-0.418007
-0.420085
-0.420303
-0.418663
-0.415158
-0.409768
-0.402539
-0.393522
-0.382772
-0.370362
-0.356386
-0.340958
-0.324215
-0.306327
-0.287515
-0.26807
-0.248387
-0.228986
-0.210527
-0.193707
-0.179215
-0.167112
-0.157624
-0.147376
-0.140036
-0.13885
-0.0985227
-0.0973517
-0.0968505
-0.0990519
-0.105116
-0.11525
-0.129072
-0.145952
-0.165168
-0.185937
-0.207468
-0.229056
-0.250164
-0.27044
-0.28968
-0.307772
-0.324644
-0.340228
-0.354448
-0.367216
-0.37844
-0.388027
-0.395893
-0.401963
-0.406175
-0.408481
-0.408847
-0.407263
-0.403733
-0.398222
-0.390773
-0.381436
-0.370267
-0.357334
-0.342732
-0.326577
-0.309013
-0.290224
-0.270454
-0.25003
-0.229395
-0.209127
-0.189945
-0.172599
-0.157818
-0.145647
-0.136481
-0.127367
-0.120956
-0.11975
-0.0954143
-0.0943794
-0.0936394
-0.0947746
-0.0989907
-0.106794
-0.118099
-0.132514
-0.149521
-0.168513
-0.188809
-0.209725
-0.230656
-0.251132
-0.270824
-0.289516
-0.307059
-0.323339
-0.338248
-0.351682
-0.363533
-0.373699
-0.382084
-0.388604
-0.39319
-0.395784
-0.396347
-0.394856
-0.391326
-0.385709
-0.37804
-0.36837
-0.356751
-0.34325
-0.327959
-0.310995
-0.29251
-0.272705
-0.251847
-0.230303
-0.208568
-0.187282
-0.167225
-0.149195
-0.133947
-0.121536
-0.112302
-0.103823
-0.097764
-0.0962539
-0.092568
-0.0916875
-0.0908621
-0.0911767
-0.0936641
-0.0989942
-0.107417
-0.118883
-0.133163
-0.149873
-0.168485
-0.188372
-0.208888
-0.229453
-0.249599
-0.268977
-0.287332
-0.304472
-0.320242
-0.334505
-0.347133
-0.358011
-0.367032
-0.374104
-0.379148
-0.382102
-0.38292
-0.381571
-0.378071
-0.372368
-0.364489
-0.35448
-0.342391
-0.328285
-0.312253
-0.294414
-0.274929
-0.254012
-0.231962
-0.209185
-0.186232
-0.163803
-0.142737
-0.123872
-0.107979
-0.0950715
-0.0854452
-0.0769719
-0.07051
-0.0680216
-0.0900161
-0.0892985
-0.0885104
-0.0882629
-0.0892371
-0.0920757
-0.0973243
-0.105368
-0.116376
-0.130266
-0.146706
-0.165158
-0.184965
-0.205451
-0.226004
-0.246122
-0.265415
-0.283585
-0.300402
-0.31568
-0.32926
-0.341008
-0.350803
-0.358545
-0.364149
-0.367547
-0.368691
-0.367544
-0.364111
-0.358356
-0.350286
-0.339943
-0.327377
-0.312649
-0.295846
-0.277092
-0.256556
-0.23447
-0.211163
-0.187084
-0.162834
-0.139172
-0.116983
-0.0971331
-0.080385
-0.0666729
-0.0563386
-0.0470817
-0.0393966
-0.0346526
-0.0877502
-0.0872082
-0.0865476
-0.0859618
-0.0856711
-0.0861055
-0.0880017
-0.0922189
-0.0994367
-0.109972
-0.123746
-0.140343
-0.159116
-0.179307
-0.200169
-0.221035
-0.241358
-0.260708
-0.278754
-0.295239
-0.309959
-0.32275
-0.333475
-0.342024
-0.348305
-0.352247
-0.353798
-0.352921
-0.34961
-0.343846
-0.335618
-0.324965
-0.311938
-0.296596
-0.279028
-0.25936
-0.23777
-0.214514
-0.189944
-0.164549
-0.138975
-0.114022
-0.090607
-0.0695994
-0.0517352
-0.0368698
-0.025452
-0.0144819
-0.00506206
0.00391243
-0.0857133
-0.085377
-0.0849139
-0.0841413
-0.0827866
-0.0809533
-0.079447
-0.0795698
-0.0825831
-0.0892992
-0.0999613
-0.114311
-0.131729
-0.151394
-0.172425
-0.193995
-0.215388
-0.236024
-0.255448
-0.273314
-0.289353
-0.303362
-0.315179
-0.324678
-0.331763
-0.336359
-0.338412
-0.337885
-0.334766
-0.329052
-0.320721
-0.309808
-0.296366
-0.280459
-0.262176
-0.24165
-0.219072
-0.194713
-0.16895
-0.142298
-0.115429
-0.0891583
-0.0643965
-0.0419878
-0.022621
-0.00611005
0.00697986
0.0207282
0.0316513
0.0474845
-0.0837845
-0.083709
-0.0835014
-0.0825976
-0.080265
-0.0762792
-0.0714329
-0.0673892
-0.0659836
-0.0685796
-0.0758058
-0.087602
-0.103398
-0.122319
-0.143365
-0.165551
-0.187995
-0.209959
-0.230854
-0.250225
-0.267727
-0.283102
-0.296156
-0.306743
-0.314758
-0.32012
-0.322777
-0.322692
-0.31985
-0.314261
-0.305905
-0.294815
-0.281048
-0.264672
-0.245786
-0.22453
-0.201106
-0.175798
-0.148997
-0.121224
-0.0931437
-0.0655419
-0.0392726
-0.0151008
0.00637366
0.0253941
0.0413648
0.0593471
0.0716858
0.0981483
-0.0817696
-0.0820214
-0.0821023
-0.0810121
-0.0776459
-0.0715593
-0.0635268
-0.0554748
-0.0497256
-0.0481717
-0.0518538
-0.060947
-0.0749567
-0.0929708
-0.113885
-0.136573
-0.159995
-0.18326
-0.205641
-0.22657
-0.245613
-0.26245
-0.276845
-0.288627
-0.297675
-0.303906
-0.307264
-0.307718
-0.305251
-0.299879
-0.291605
-0.280456
-0.266496
-0.249806
-0.230493
-0.208709
-0.184664
-0.158648
-0.131043
-0.102348
-0.0731721
-0.0442167
-0.0162139
0.0102193
0.0346486
0.0575043
0.0783949
0.103166
0.120168
0.163217
-0.0794549
-0.0800622
-0.0804288
-0.078988
-0.0743888
-0.0661794
-0.0552024
-0.0435455
-0.0338678
-0.0284857
-0.028818
-0.0352868
-0.0475001
-0.0645357
-0.0852094
-0.108276
-0.132559
-0.157027
-0.180825
-0.203273
-0.22385
-0.242165
-0.257937
-0.270964
-0.281109
-0.288279
-0.292418
-0.293498
-0.291509
-0.286464
-0.278392
-0.267329
-0.253351
-0.236551
-0.217049
-0.195002
-0.170626
-0.144197
-0.116067
-0.0866683
-0.0565052
-0.0261239
0.0039414
0.0333042
0.0617836
0.0901293
0.118347
0.153529
0.18331
0.248002
-0.0769446
-0.077793
-0.0782901
-0.076244
-0.0701944
-0.0597675
-0.0461022
-0.0314493
-0.0185767
-0.0100447
-0.00755818
-0.0117535
-0.0223524
-0.0384545
-0.0588339
-0.0821615
-0.107154
-0.132667
-0.157731
-0.181569
-0.203575
-0.223294
-0.240395
-0.254645
-0.265886
-0.274017
-0.278981
-0.280751
-0.279328
-0.274729
-0.266992
-0.256167
-0.24235
-0.225659
-0.206221
-0.184193
-0.159776
-0.133219
-0.104814
-0.0748898
-0.0437894
-0.0118292
0.020763
0.0539806
0.0880683
0.124218
0.162742
0.212399
0.259904
0.338477
-0.0755241
-0.0762215
-0.0763485
-0.0731234
-0.0652432
-0.0525922
-0.0365156
-0.019523
-0.00439123
0.00637912
0.0108908
0.00836301
-0.00100287
-0.0163454
-0.0364406
-0.0599219
-0.0854407
-0.111771
-0.137863
-0.162859
-0.186083
-0.207022
-0.225304
-0.240661
-0.252918
-0.261962
-0.267734
-0.27021
-0.269399
-0.265332
-0.258066
-0.247643
-0.234149
-0.217729
-0.198533
-0.176718
-0.152459
-0.125957
-0.0974239
-0.067059
-0.0350031
-0.00126311
0.0343926
0.0726311
0.114619
0.162688
0.217905
0.289032
0.349402
0.424378
-0.0796983
-0.078998
-0.0773879
-0.0717774
-0.0612304
-0.0459931
-0.0276702
-0.00886326
0.00764833
0.0196534
0.0253876
0.0238508
0.0152309
0.000366693
-0.0195422
-0.0431273
-0.0690123
-0.0959274
-0.122771
-0.148631
-0.172781
-0.194667
-0.213878
-0.230124
-0.243211
-0.253017
-0.25948
-0.262577
-0.262321
-0.258753
-0.251935
-0.241957
-0.228896
-0.212833
-0.193925
-0.17235
-0.148271
-0.121842
-0.0931929
-0.0623864
-0.0293378
0.00631797
0.0454303
0.0897136
0.142087
0.207773
0.291568
0.403492
0.495761
0.603347
-0.10313
-0.0953086
-0.0868614
-0.0760723
-0.0617092
-0.0433793
-0.0227273
-0.00233125
0.0153614
0.0281403
0.0343167
0.0332039
0.0249937
0.0104765
-0.00919387
-0.0326833
-0.0586309
-0.0857628
-0.112958
-0.139276
-0.163959
-0.186423
-0.206228
-0.223065
-0.236722
-0.247068
-0.254032
-0.257592
-0.25776
-0.254578
-0.248112
-0.238448
-0.225683
-0.209927
-0.191305
-0.169956
-0.146028
-0.119646
-0.0908737
-0.0596474
-0.025665
0.0118174
0.0543151
0.104749
0.168249
0.254307
0.375602
0.555655
0.767629
1.1078
-0.189964
-0.112207
-0.0806185
-0.0713892
-0.0581118
-0.03874
-0.0170455
0.00395753
0.0217604
0.0341884
0.0398371
0.0382238
0.0296209
0.014848
-0.00494823
-0.02847
-0.0544025
-0.0815107
-0.1087
-0.135045
-0.159794
-0.182357
-0.202294
-0.219286
-0.233114
-0.243642
-0.250794
-0.254543
-0.254902
-0.25191
-0.245632
-0.236152
-0.22357
-0.207995
-0.189547
-0.168358
-0.144561
-0.118251
-0.0894363
-0.0579549
-0.0233407
0.0154304
0.0603509
0.115164
0.186429
0.28649
0.435239
0.68031
1.07932
1.82849
)
;

boundaryField
{
    movingWall
    {
        type            zeroGradient;
    }
    fixedWalls
    {
        type            zeroGradient;
    }
    frontAndBack
    {
        type            empty;
    }
}


// ************************************************************************* //
