/*--------------------------------*- C++ -*----------------------------------*\
  =========                 |
  \\      /  F ield         | OpenFOAM: The Open Source CFD Toolbox
   \\    /   O peration     | Website:  https://openfoam.org
    \\  /    A nd           | Version:  7
     \\/     M anipulation  |
\*---------------------------------------------------------------------------*/
FoamFile
{
    version     2.0;
    format      ascii;
    class       surfaceScalarField;
    location    "1050";
    object      phi;
}
// * * * * * * * * * * * * * * * * * * * * * * * * * * * * * * * * * * * * * //

dimensions      [0 3 -1 0 0 0 0];

internalField   nonuniform List<scalar> 
4900
(
1.70167e-06
-1.70247e-06
6.22361e-06
-4.52189e-06
1.17166e-05
-5.49326e-06
1.6503e-05
-4.78668e-06
1.97505e-05
-3.24769e-06
2.13894e-05
-1.63909e-06
2.17676e-05
-3.78362e-07
2.12617e-05
5.05792e-07
2.00148e-05
1.24679e-06
1.78629e-05
2.15186e-06
1.44126e-05
3.45021e-06
9.17697e-06
5.23551e-06
1.66489e-06
7.51201e-06
-8.57577e-06
1.02406e-05
-2.18945e-05
1.33187e-05
-3.84541e-05
1.65595e-05
-5.81588e-05
1.97046e-05
-8.05729e-05
2.24141e-05
-0.000104858
2.42849e-05
-0.000129757
2.48986e-05
-0.000153641
2.38847e-05
-0.000174625
2.09841e-05
-0.000190727
1.61014e-05
-0.00020007
9.34359e-06
-0.000201135
1.06508e-06
-0.000192981
-8.15437e-06
-0.000175363
-1.76182e-05
-0.000148802
-2.6561e-05
-0.000114592
-3.42099e-05
-7.47596e-05
-3.98326e-05
-3.19563e-05
-4.28033e-05
1.07024e-05
-4.26587e-05
4.99598e-05
-3.92573e-05
8.29639e-05
-3.30041e-05
0.000107539
-2.45747e-05
0.000122419
-1.48809e-05
0.000127492
-5.07265e-06
0.000123838
3.65403e-06
0.000113455
1.03831e-05
9.87346e-05
1.47204e-05
8.20201e-05
1.67144e-05
6.52494e-05
1.67708e-05
4.9768e-05
1.54814e-05
3.63102e-05
1.34578e-05
2.51036e-05
1.12067e-05
1.60403e-05
9.0633e-06
8.89365e-06
7.14663e-06
3.59445e-06
5.29921e-06
5.05243e-07
3.0892e-06
5.05243e-07
4.47842e-06
-6.18068e-06
1.38531e-05
-1.38969e-05
2.43144e-05
-1.59552e-05
3.29016e-05
-1.33744e-05
3.80029e-05
-8.34956e-06
3.9228e-05
-2.8646e-06
3.68585e-05
1.99076e-06
3.12012e-05
6.16285e-06
2.21477e-05
1.03e-05
9.06979e-06
1.52295e-05
-9.0298e-06
2.15496e-05
-3.3252e-05
2.94575e-05
-6.44966e-05
3.87564e-05
-0.000103203
4.89468e-05
-0.000149141
5.92569e-05
-0.000201251
6.86692e-05
-0.000257585
7.60387e-05
-0.000315433
8.02619e-05
-0.000371597
8.04485e-05
-0.000422741
7.60423e-05
-0.000465727
6.6871e-05
-0.000497877
5.3134e-05
-0.000517136
3.53603e-05
-0.000522162
1.43698e-05
-0.000512413
-8.6847e-06
-0.00048798
-3.25869e-05
-0.0004495
-5.60986e-05
-0.000398174
-7.78867e-05
-0.000335834
-9.65502e-05
-0.000264954
-0.000110713
-0.000188623
-0.000119134
-0.000110416
-0.000120866
-3.42147e-05
-0.000115458
3.59058e-05
-0.000103125
9.62549e-05
-8.49239e-05
0.000144018
-6.26435e-05
0.000177271
-3.83256e-05
0.000195224
-1.42993e-05
0.000198471
7.13585e-06
0.00018911
2.40817e-05
0.000170288
3.55361e-05
0.000145597
4.14616e-05
0.000118447
4.2632e-05
9.16022e-05
4.03023e-05
6.69309e-05
3.5878e-05
4.542e-05
3.05741e-05
2.74601e-05
2.51066e-05
1.33355e-05
1.94238e-05
3.75561e-06
1.26691e-05
4.26085e-06
5.98773e-06
-1.21684e-05
1.73389e-05
-2.52482e-05
2.88029e-05
-2.74195e-05
3.68222e-05
-2.13942e-05
3.95355e-05
-1.10633e-05
3.63542e-05
3.16322e-07
2.72151e-05
1.11295e-05
1.19107e-05
2.14669e-05
-1.03241e-05
3.25346e-05
-4.07667e-05
4.56718e-05
-8.07766e-05
6.15593e-05
-0.000131277
7.99577e-05
-0.000192333
9.98119e-05
-0.000262839
0.000119453
-0.000340449
0.000136867
-0.000421805
0.000150025
-0.000502991
0.000157225
-0.000580053
0.000157324
-0.000649445
0.000149841
-0.000708306
0.000134903
-0.000754553
0.000113117
-0.000786828
8.54088e-05
-0.000804366
5.28988e-05
-0.00080682
1.68239e-05
-0.000794057
-2.14478e-05
-0.000766089
-6.05554e-05
-0.000723224
-9.89638e-05
-0.0006662
-0.00013491
-0.000596258
-0.000166492
-0.00051524
-0.000191731
-0.000425664
-0.00020871
-0.000330732
-0.000215798
-0.000234229
-0.000211961
-0.000140289
-0.000197065
-5.31412e-05
-0.000172072
2.32494e-05
-0.000139034
8.591e-05
-0.000100986
0.000133049
-6.14386e-05
0.0001637
-2.35153e-05
0.000178006
9.77592e-06
0.000177504
3.60381e-05
0.000164997
5.3969e-05
0.000144032
6.35967e-05
0.000118292
6.60425e-05
9.10368e-05
6.31331e-05
6.47411e-05
5.68698e-05
4.1064e-05
4.87837e-05
2.12073e-05
3.92805e-05
6.60708e-06
2.72693e-05
1.08679e-05
6.50858e-06
-1.86768e-05
1.75974e-05
-3.63371e-05
2.69514e-05
-3.67738e-05
3.07564e-05
-2.51996e-05
2.72067e-05
-7.51396e-06
1.56089e-05
1.19137e-05
-4.57255e-06
3.13107e-05
-3.4352e-05
5.12461e-05
-7.52524e-05
7.34349e-05
-0.000128751
9.91699e-05
-0.000195577
0.000128385
-0.000275149
0.00015953
-0.000365342
0.000190004
-0.000462666
0.000216777
-0.000562806
0.000237007
-0.000661317
0.000248536
-0.00075422
0.000250128
-0.000838376
0.00024148
-0.000911577
0.000223041
-0.000972422
0.000195748
-0.00102008
0.000160777
-0.00105406
0.000119385
-0.00107401
7.28507e-05
-0.00107962
2.2436e-05
-0.0010705
-3.05734e-05
-0.00104632
-8.47314e-05
-0.00100695
-0.000138333
-0.000952463
-0.000189398
-0.000883262
-0.000235693
-0.000800272
-0.000274721
-0.000705133
-0.000303849
-0.000600338
-0.000320593
-0.000489299
-0.000323
-0.000376287
-0.000310077
-0.000266139
-0.000282219
-0.000163711
-0.000241463
-7.33169e-05
-0.00019138
1.77003e-06
-0.000136525
5.99747e-05
-8.172e-05
0.000100994
-3.12431e-05
0.000125082
1.19494e-05
0.000133531
4.55205e-05
0.000128845
6.82828e-05
0.00011432
8.05673e-05
9.35392e-05
8.39139e-05
6.98646e-05
8.05443e-05
4.6113e-05
7.25353e-05
2.46348e-05
6.07587e-05
7.92785e-06
4.39762e-05
1.87958e-05
6.20513e-06
-2.4882e-05
1.48953e-05
-4.50273e-05
1.92046e-05
-4.10834e-05
1.54727e-05
-2.1468e-05
2.15278e-06
5.80566e-06
-2.16394e-05
3.57056e-05
-5.70807e-05
6.67518e-05
-0.000105898
0.000100063
-0.000169714
0.000137251
-0.000249092
0.000178548
-0.000342846
0.000222139
-0.000447958
0.000264642
-0.000560046
0.000302092
-0.000674165
0.000330896
-0.000785641
0.000348483
-0.000890654
0.000353549
-0.000986474
0.000345948
-0.00107139
0.000326391
-0.00114444
0.000296091
-0.00120514
0.00025645
-0.00125324
0.000208879
-0.0012886
0.000154742
-0.00131108
9.53357e-05
-0.00132052
3.18736e-05
-0.00131662
-3.44684e-05
-0.00129905
-0.000102307
-0.00126732
-0.000170058
-0.00122087
-0.000235856
-0.00115913
-0.000297428
-0.00108185
-0.000352007
-0.000989256
-0.000396439
-0.000882455
-0.000427394
-0.000763731
-0.000441724
-0.00063679
-0.000437018
-0.000506699
-0.000412309
-0.000379482
-0.00036868
-0.000261339
-0.000309524
-0.000157573
-0.000240292
-7.171e-05
-0.000167583
-5.19018e-06
-9.77629e-05
4.25285e-05
-3.57693e-05
7.26911e-05
1.53579e-05
8.69008e-05
5.4073e-05
8.76854e-05
7.97827e-05
7.82535e-05
9.33458e-05
6.21169e-05
9.66809e-05
4.27364e-05
9.19157e-05
2.34064e-05
8.00888e-05
7.60261e-06
5.978e-05
2.63984e-05
4.89806e-06
-2.978e-05
8.8795e-06
-4.90088e-05
5.28737e-06
-3.74914e-05
-8.92806e-06
-7.25279e-06
-3.51112e-05
3.19886e-05
-7.4425e-05
7.50191e-05
-0.000128588
0.000120914
-0.000199348
0.000170823
-0.000287262
0.000225165
-0.000390807
0.000282092
-0.000506335
0.000337667
-0.000628783
0.00038709
-0.000752702
0.000426011
-0.000873186
0.000451379
-0.000986431
0.000461729
-0.00108988
0.000456997
-0.00118204
0.000438112
-0.00126222
0.00040657
-0.00133022
0.000364091
-0.00138616
0.000312389
-0.00143036
0.00025308
-0.00146326
0.000187641
-0.00148527
0.000117344
-0.00149668
4.32863e-05
-0.00149762
-3.35351e-05
-0.00148786
-0.000112068
-0.00146676
-0.000191155
-0.00143326
-0.000269352
-0.001386
-0.000344693
-0.00132341
-0.000414592
-0.00124404
-0.000475807
-0.00114698
-0.000524454
-0.00103245
-0.000556256
-0.000902325
-0.000567145
-0.000760555
-0.00055408
-0.000613265
-0.00051597
-0.000468248
-0.00045454
-0.000333764
-0.000374776
-0.000216873
-0.000284474
-0.000121882
-0.000192754
-4.97494e-05
-0.000107902
1.15937e-06
-3.55509e-05
3.34465e-05
2.17859e-05
4.96635e-05
6.35657e-05
5.27693e-05
9.024e-05
4.61779e-05
0.000103272
3.35921e-05
0.000104502
1.88726e-05
9.48083e-05
6.11373e-06
7.25388e-05
3.25121e-05
2.27402e-06
-3.20541e-05
-9.15859e-07
-4.58191e-05
-1.50081e-05
-2.33993e-05
-4.21947e-05
1.99337e-05
-8.36589e-05
7.34525e-05
-0.000140835
0.000132195
-0.000215422
0.000195502
-0.000308099
0.0002635
-0.000417329
0.000334395
-0.000539165
0.000403928
-0.000668061
0.000466562
-0.000798082
0.000517112
-0.000923959
0.000551888
-0.00104167
0.000569093
-0.00114857
0.000568624
-0.00124317
0.000551596
-0.00132489
0.000519835
-0.00139382
0.000475502
-0.00145052
0.000420792
-0.0014959
0.000357769
-0.00153109
0.00028827
-0.00155726
0.000213806
-0.00157543
0.000135517
-0.00158644
5.42954e-05
-0.0015908
-2.91772e-05
-0.00158849
-0.000114372
-0.00157897
-0.00020068
-0.00156107
-0.000287251
-0.00153299
-0.000372775
-0.00149226
-0.000455318
-0.001436
-0.000532065
-0.00136131
-0.000599147
-0.00126581
-0.000651756
-0.00114844
-0.000684511
-0.0010104
-0.000692127
-0.000855858
-0.000670509
-0.000692242
-0.000618155
-0.000529586
-0.000537432
-0.000378902
-0.000435157
-0.000249677
-0.00032198
-0.000147389
-0.00021019
-7.2498e-05
-0.000110442
-2.17007e-05
-2.90115e-05
9.32494e-06
3.254e-05
2.4437e-05
7.51279e-05
2.74192e-05
0.00010029
2.22289e-05
0.000109692
1.30458e-05
0.000103991
4.21278e-06
8.13719e-05
3.67249e-05
-1.9179e-06
-3.01362e-05
-1.46556e-05
-3.30815e-05
-4.13277e-05
3.27267e-06
-8.32252e-05
6.1831e-05
-0.00014136
0.000131587
-0.00021713
0.000207965
-0.000311318
0.000289689
-0.00042264
0.000374822
-0.000547204
0.000458959
-0.000679205
0.000535929
-0.000812256
0.000599613
-0.000940594
0.00064545
-0.00105977
0.000671068
-0.00116684
0.000676154
-0.00126015
0.000661941
-0.00133919
0.00063063
-0.00140427
0.000584921
-0.00145642
0.000527645
-0.00149711
0.000461482
-0.00152812
0.000388779
-0.00155128
0.000311431
-0.00156828
0.000230805
-0.00158056
0.000147799
-0.00158925
6.29876e-05
-0.00159507
-2.33589e-05
-0.00159825
-0.000111192
-0.00159855
-0.00020038
-0.00159509
-0.000290713
-0.00158617
-0.000381689
-0.00156924
-0.000472253
-0.00154085
-0.000560452
-0.00149681
-0.000643187
-0.00143253
-0.000716038
-0.00134385
-0.000773191
-0.00122819
-0.000807784
-0.00108583
-0.00081287
-0.00092105
-0.000782938
-0.000742701
-0.000715781
-0.000563542
-0.000614317
-0.000397949
-0.000487572
-0.000258313
-0.000349826
-0.000151401
-0.000217353
-7.68607e-05
-0.000103552
-2.92269e-05
-1.50937e-05
-2.07207e-06
4.79731e-05
9.9747e-06
8.82432e-05
1.17307e-05
0.000107936
7.79166e-06
0.00010793
2.60103e-06
8.65625e-05
3.93259e-05
-7.7454e-06
-2.23909e-05
-3.19008e-05
-8.9263e-06
-7.25013e-05
4.3873e-05
-0.000129805
0.000119134
-0.000204633
0.000206415
-0.000297715
0.000301047
-0.000408159
0.000400133
-0.000532455
0.000499118
-0.000664831
0.000591334
-0.000798553
0.000669651
-0.000927309
0.000728369
-0.00104608
0.000764223
-0.00115146
0.00077644
-0.00124154
0.000766239
-0.00131578
0.000736183
-0.00137474
0.000689586
-0.00141984
0.000630021
-0.00145311
0.000560918
-0.00147688
0.000485253
-0.00149349
0.000405382
-0.00150504
0.00032298
-0.00151332
0.000239084
-0.00151976
0.000154246
-0.00152543
6.86583e-05
-0.00153103
-1.77634e-05
-0.00153697
-0.000105249
-0.00154334
-0.000194008
-0.00154975
-0.00028431
-0.00155516
-0.000376278
-0.00155774
-0.000469671
-0.00155455
-0.000563638
-0.00154134
-0.000656404
-0.00151259
-0.000744779
-0.00146208
-0.00082371
-0.00138368
-0.000886179
-0.00127295
-0.000923602
-0.00112895
-0.000926933
-0.000956063
-0.000888673
-0.000764796
-0.000805583
-0.000571034
-0.000681335
-0.000392989
-0.000527871
-0.0002462
-0.000364142
-0.000138409
-0.000211344
-6.77113e-05
-8.57911e-05
-2.59004e-05
6.16223e-06
-4.31372e-06
6.66564e-05
3.86929e-06
9.97529e-05
4.28192e-06
0.000107518
1.7147e-06
8.91297e-05
4.10406e-05
-1.4936e-05
-7.45501e-06
-5.16694e-05
2.7807e-05
-0.000106495
9.86985e-05
-0.000178738
0.000191377
-0.000268749
0.000296426
-0.000375985
0.000408283
-0.000497579
0.000521727
-0.000628134
0.000629673
-0.000760796
0.000723995
-0.000888744
0.000797599
-0.00100632
0.000845941
-0.00110952
0.000867428
-0.00119611
0.000863025
-0.00126542
0.000835556
-0.00131821
0.000788968
-0.00135629
0.000727663
-0.00138219
0.000655929
-0.00139875
0.000577481
-0.00140871
0.000495207
-0.00141443
0.000411104
-0.00141781
0.000326362
-0.00142028
0.000241549
-0.00142285
0.000156817
-0.00142623
7.20336e-05
-0.00143091
-1.30749e-05
-0.00143733
-9.88367e-05
-0.00144572
-0.000185612
-0.00145621
-0.000273817
-0.00146865
-0.000363846
-0.00148231
-0.00045601
-0.00149553
-0.000550418
-0.00150528
-0.000646652
-0.00150685
-0.000743208
-0.00149369
-0.000836877
-0.00145776
-0.000922108
-0.00139078
-0.00099058
-0.00128622
-0.00103149
-0.00114181
-0.00103308
-0.000962005
-0.000985389
-0.000759303
-0.000884037
-0.000553285
-0.000733889
-0.000366425
-0.000551002
-0.000217202
-0.000360567
-0.000113346
-0.000189647
-5.01913e-05
-5.69924e-05
-1.63395e-05
3.28047e-05
-1.29008e-06
8.47035e-05
2.74845e-06
0.000103479
1.64841e-06
9.02298e-05
4.2689e-05
-2.29907e-05
1.55357e-05
-7.24517e-05
7.72678e-05
-0.000140717
0.000166963
-0.000226272
0.000276932
-0.000328593
0.000398747
-0.000445553
0.000525243
-0.000572485
0.000648659
-0.000702754
0.000759942
-0.000829203
0.000850445
-0.000945526
0.000913922
-0.00104706
0.000947478
-0.00113107
0.000951436
-0.00119669
0.000928642
-0.00124473
0.000883598
-0.00127735
0.000821587
-0.00129755
0.000747863
-0.00130863
0.000667012
-0.00131371
0.000582557
-0.00131536
0.000496856
-0.00131549
0.000411238
-0.00131539
0.000326259
-0.00131583
0.000241989
-0.00131725
0.000158237
-0.00131991
7.46904e-05
-0.00132401
-8.96893e-06
-0.00132981
-9.30418e-05
-0.00133759
-0.000177832
-0.00134776
-0.000263639
-0.00136078
-0.000350833
-0.00137689
-0.000439902
-0.00139588
-0.000531428
-0.00141662
-0.000625907
-0.00143642
-0.00072341
-0.00145032
-0.000822974
-0.00145081
-0.000921617
-0.00142816
-0.00101324
-0.00137175
-0.0010879
-0.00127271
-0.00113212
-0.00112734
-0.00113077
-0.000940499
-0.00107088
-0.000727383
-0.000947005
-0.000511985
-0.000766401
-0.000321272
-0.000551279
-0.00017585
-0.000335069
-8.16206e-05
-0.000151222
-2.96196e-05
-1.91963e-05
-5.39525e-06
6.04792e-05
2.49241e-06
9.55916e-05
2.1812e-06
9.0541e-05
4.48702e-05
-3.11675e-05
4.67031e-05
-9.24347e-05
0.000138535
-0.00017243
0.000246958
-0.000268681
0.000373183
-0.000379531
0.000509596
-0.000501293
0.000647006
-0.000627976
0.000775342
-0.000752404
0.000884369
-0.000867733
0.000965774
-0.000968581
0.00101477
-0.00105156
0.00103046
-0.00111542
0.00101529
-0.00116087
0.000974092
-0.00119025
0.000912983
-0.00120696
0.000838291
-0.00121473
0.000755635
-0.00121705
0.000669335
-0.00121671
0.00058222
-0.00121565
0.000495796
-0.00121501
0.000410593
-0.00121531
0.000326559
-0.0012167
0.000243376
-0.00121912
0.000160662
-0.0012225
7.80664e-05
-0.00122679
-4.68051e-06
-0.00123205
-8.77731e-05
-0.00123853
-0.00017136
-0.00124661
-0.000255555
-0.00125689
-0.000340555
-0.00127008
-0.000426705
-0.00128696
-0.000514552
-0.00130798
-0.000604891
-0.00133269
-0.000698694
-0.00135893
-0.000796733
-0.00138184
-0.000898713
-0.00139312
-0.00100196
-0.0013812
-0.00109981
-0.00133292
-0.0011804
-0.00123696
-0.00122672
-0.00108844
-0.00121939
-0.000893347
-0.0011421
-0.000670602
-0.000989146
-0.000449595
-0.000772286
-0.000261706
-0.000522958
-0.000127799
-0.000285129
-4.91581e-05
-9.78374e-05
-1.12777e-05
2.25988e-05
2.15748e-06
8.21565e-05
2.88072e-06
8.98178e-05
4.7751e-05
-3.85912e-05
8.52942e-05
-0.00010989
0.000209834
-0.00019915
0.000336219
-0.00030283
0.000476863
-0.000418071
0.000624837
-0.000539916
0.000768851
-0.000661624
0.00089705
-0.000776079
0.000998823
-0.000877199
0.00106689
-0.000960822
0.00109839
-0.00102506
0.0010947
-0.00107028
0.00106051
-0.00109879
0.0010026
-0.00111419
0.000928387
-0.00112062
0.000844716
-0.00112192
0.000756937
-0.00112114
0.000668552
-0.00112028
0.000581363
-0.0011204
0.000495917
-0.00112184
0.000412036
-0.00112452
0.000329241
-0.00112817
0.000247026
-0.0011325
0.000164984
-0.00113726
8.28285e-05
-0.00114232
3.85002e-07
-0.00114767
-8.24254e-05
-0.00115341
-0.000165626
-0.00115976
-0.000249199
-0.00116716
-0.00033316
-0.00117626
-0.000417601
-0.00118803
-0.000502788
-0.0012036
-0.000589313
-0.00122408
-0.000678216
-0.00124986
-0.000770957
-0.00127952
-0.000869056
-0.00130838
-0.000973088
-0.00132737
-0.00108082
-0.00132298
-0.00118479
-0.00127933
-0.00127038
-0.00118263
-0.00131608
-0.0010274
-0.00129733
-0.000822065
-0.00119449
-0.000590997
-0.00100335
-0.000369961
-0.000743994
-0.000193731
-0.000461359
-7.99959e-05
-0.000211573
-2.19518e-05
-3.54453e-05
2.45801e-07
5.99588e-05
3.27245e-06
8.67911e-05
5.10234e-05
-4.44946e-05
0.000129789
-0.000123388
0.000288727
-0.000218961
0.000431792
-0.000326537
0.000584438
-0.000442177
0.000740477
-0.000560069
0.000886744
-0.000673266
0.00101025
-0.000775174
0.00110073
-0.000860788
0.00115251
-0.000927366
0.00116497
-0.000974622
0.00114195
-0.00100451
0.0010904
-0.00102062
0.00101871
-0.00102734
0.000935101
-0.00102886
0.000846236
-0.00102853
0.000756607
-0.00102851
0.000668538
-0.00102986
0.000582714
-0.00103281
0.000498861
-0.00103711
0.000416336
-0.00104235
0.000334487
-0.00104814
0.000252817
-0.00105417
0.00017101
-0.00106023
8.88903e-05
-0.00106623
6.37861e-06
-0.00107212
-7.65309e-05
-0.00107794
-0.000159806
-0.00108375
-0.000243386
-0.00108973
-0.000327185
-0.00109621
-0.000411123
-0.0011038
-0.000495194
-0.00111352
-0.000579594
-0.00112683
-0.000664908
-0.00114543
-0.000752359
-0.00117054
-0.000843939
-0.00120156
-0.000942075
-0.00123407
-0.00104831
-0.00125809
-0.00116076
-0.00125783
-0.00127065
-0.00121436
-0.00135955
-0.00111181
-0.00139988
-0.000945361
-0.00136093
-0.000728012
-0.0012207
-0.000491702
-0.000980304
-0.00027905
-0.00067401
-0.000125357
-0.000365266
-3.96816e-05
-0.000121121
-4.39469e-06
2.46719e-05
3.03073e-06
7.93657e-05
5.40541e-05
-4.83069e-05
0.000178096
-0.000131944
0.000372364
-0.000230682
0.000530529
-0.000338716
0.000692472
-0.000451263
0.000853024
-0.0005621
0.00099758
-0.000664519
0.00111266
-0.000752778
0.00118899
-0.000823139
0.00122287
-0.000874355
0.00121619
-0.000907668
0.00117527
-0.000926336
0.00110907
-0.000934757
0.00102713
-0.000937425
0.000937769
-0.000938043
0.000846854
-0.00093904
0.000757604
-0.000941574
0.000671072
-0.000945847
0.000586987
-0.000951527
0.000504542
-0.000958109
0.000422918
-0.000965132
0.000341509
-0.000972268
0.000259953
-0.000979331
0.000178073
-0.000986237
9.57966e-05
-0.000992967
1.31088e-05
-0.000999524
-6.99744e-05
-0.00100591
-0.000153422
-0.00101211
-0.000237186
-0.00101812
-0.000321178
-0.00102396
-0.000405276
-0.00102982
-0.000489336
-0.00103617
-0.000573247
-0.00104399
-0.000657083
-0.00105495
-0.0007414
-0.00107127
-0.000827616
-0.00109505
-0.000918303
-0.00112647
-0.00101689
-0.00116123
-0.00112601
-0.00118797
-0.00124391
-0.00118805
-0.00135947
-0.00113941
-0.00144852
-0.00102487
-0.00147547
-0.000842487
-0.00140309
-0.000612905
-0.00120989
-0.000377873
-0.000909042
-0.000185657
-0.000557482
-6.59165e-05
-0.000240861
-1.23383e-05
-2.89062e-05
2.04007e-06
6.49873e-05
5.60942e-05
-4.96989e-05
0.000227794
-0.00013507
0.000457735
-0.00023389
0.000629349
-0.000339299
0.00079788
-0.00044596
0.000959685
-0.000547631
0.00109925
-0.000638181
0.00120321
-0.000712914
0.00126372
-0.00076942
0.00127938
-0.000807874
0.00125464
-0.000830791
0.00119818
-0.000842278
0.00112055
-0.000846954
0.00103181
-0.000848884
0.0009397
-0.000850886
0.000848855
-0.000854371
0.00076109
-0.000859631
0.000676332
-0.000866309
0.000593665
-0.000873834
0.000512067
-0.000881696
0.00043078
-0.000889557
0.00034937
-0.000897251
0.000267647
-0.000904737
0.00018556
-0.000912045
0.000103104
-0.000919224
2.02881e-05
-0.000926317
-6.28814e-05
-0.000933338
-0.000146401
-0.000940262
-0.000230262
-0.000947017
-0.000314423
-0.000953487
-0.000398806
-0.000959564
-0.00048326
-0.00096524
-0.00056757
-0.000970808
-0.000651516
-0.000977159
-0.000735048
-0.000986111
-0.000818665
-0.00100043
-0.000903985
-0.00102302
-0.000994296
-0.00105475
-0.00109427
-0.00109097
-0.00120769
-0.00111824
-0.0013322
-0.00111427
-0.00145249
-0.00105388
-0.00153586
-0.000920433
-0.00153653
-0.000718468
-0.00141185
-0.000480164
-0.00114735
-0.0002582
-0.000779447
-0.000101477
-0.000397584
-2.37486e-05
-0.000106634
3.07289e-07
4.09315e-05
5.64015e-05
-4.85842e-05
0.000276379
-0.000132735
0.000541886
-0.000228821
0.000725435
-0.000329033
0.000898093
-0.000427768
0.00105842
-0.00051908
0.00119056
-0.000597629
0.00128176
-0.000659841
0.00132594
-0.000704571
0.00132411
-0.000733192
0.00128326
-0.000749099
0.00121409
-0.00075674
0.00112819
-0.000760443
0.00103551
-0.000763486
0.000942743
-0.000767699
0.000853067
-0.000773613
0.000767004
-0.000780944
0.000683663
-0.000789095
0.000601815
-0.000797508
0.00052048
-0.00080582
0.000439093
-0.000813873
0.000357423
-0.000821653
0.000275428
-0.000829226
0.000193133
-0.000836684
0.000110562
-0.00084411
2.7714e-05
-0.000851567
-5.54236e-05
-0.000859086
-0.000138882
-0.000866659
-0.000222689
-0.000874225
-0.000306857
-0.000881662
-0.000391369
-0.000888776
-0.000476146
-0.000895323
-0.000561023
-0.000901119
-0.000645721
-0.00090627
-0.000729897
-0.000911585
-0.000813349
-0.00091904
-0.000896531
-0.000931943
-0.000981393
-0.00095403
-0.00107219
-0.000986595
-0.00117512
-0.00102384
-0.00129496
-0.00104892
-0.00142741
-0.00103509
-0.00154969
-0.000954985
-0.00161664
-0.000795974
-0.00157086
-0.000574204
-0.00136912
-0.000337156
-0.0010165
-0.000146096
-0.000588644
-3.90011e-05
-0.000213729
-2.30741e-06
4.23772e-06
5.40941e-05
-4.50824e-05
0.000321461
-0.000125282
0.000622086
-0.000216205
0.000816357
-0.00030922
0.000991108
-0.000398693
0.00114789
-0.000479207
0.00127108
-0.000546317
0.00134887
-0.000597535
0.00137715
-0.000632802
0.00135937
-0.000654366
0.00130482
-0.000666064
0.00122579
-0.000672224
0.00113435
-0.000676539
0.00103983
-0.000681376
0.000947581
-0.000687687
0.000859378
-0.000695395
0.000774712
-0.000703943
0.000692212
-0.000712737
0.000610609
-0.00072137
0.000529113
-0.000729668
0.00044739
-0.000737625
0.00036538
-0.000745328
0.000283131
-0.000752893
0.000200698
-0.000760428
0.000118097
-0.00076802
3.5306e-05
-0.000775732
-4.77117e-05
-0.000783598
-0.000131016
-0.000791628
-0.000214659
-0.000799797
-0.000298688
-0.000808027
-0.000383139
-0.00081616
-0.000468014
-0.000823938
-0.000553244
-0.000831016
-0.000638643
-0.000837053
-0.00072386
-0.00084199
-0.000808412
-0.000846573
-0.000891948
-0.000853031
-0.000974935
-0.000865354
-0.00105986
-0.000888058
-0.00115242
-0.000922275
-0.00126074
-0.000959707
-0.00138998
-0.000978475
-0.00153092
-0.000946965
-0.00164815
-0.000838212
-0.00167961
-0.000649385
-0.00155794
-0.000414545
-0.00125134
-0.000197729
-0.000805461
-5.87551e-05
-0.000352703
-5.87584e-06
-4.86416e-05
4.82182e-05
-3.94662e-05
0.000360927
-0.000113311
0.000695931
-0.000197084
0.000900129
-0.000281452
0.00107548
-0.000360926
0.00122737
-0.000430756
0.00134091
-0.000487407
0.00140553
-0.000529353
0.0014191
-0.000557366
0.00138739
-0.000574198
0.00132166
-0.000583728
0.00123532
-0.000589828
0.00114045
-0.000595402
0.0010454
-0.00060197
0.000954149
-0.000609836
0.000867244
-0.000618595
0.000783471
-0.000627652
0.000701268
-0.000636547
0.000619504
-0.000645061
0.000537627
-0.000653175
0.000455505
-0.000660984
0.000373189
-0.000668618
0.000290765
-0.000676199
0.000208279
-0.000683829
0.000125727
-0.00069158
4.30565e-05
-0.000699504
-3.9787e-05
-0.000707634
-0.000122887
-0.000715985
-0.000206308
-0.000724555
-0.000290117
-0.000733309
-0.000374385
-0.000742158
-0.000459165
-0.000750924
-0.000544478
-0.000759305
-0.000630262
-0.000766861
-0.000716304
-0.000773112
-0.000802162
-0.000777871
-0.000887189
-0.00078193
-0.000970876
-0.00078794
-0.00105385
-0.000800737
-0.00113962
-0.000825468
-0.00123601
-0.000862066
-0.00135338
-0.000897626
-0.00149536
-0.000903391
-0.00164238
-0.000843968
-0.00173904
-0.000698448
-0.00170346
-0.000482145
-0.00146764
-0.000252292
-0.00103531
-8.31578e-05
-0.000521837
-1.03784e-05
-0.000121421
3.78398e-05
-3.21077e-05
0.000393035
-9.75699e-05
0.000761393
-0.000172643
0.000975203
-0.000247396
0.00115023
-0.000316593
0.00129656
-0.000376209
0.00140052
-0.000423564
0.00145288
-0.000457908
0.00145344
-0.000480551
0.00141003
-0.000494407
0.00133551
-0.000503074
0.00124399
-0.000509784
0.00114716
-0.000516655
0.00105227
-0.000524536
0.000962029
-0.00053333
0.000876038
-0.000542527
0.000792668
-0.000551629
0.00071037
-0.000560348
0.000628224
-0.000568626
0.000545905
-0.000576546
0.000463424
-0.000584246
0.000380889
-0.000591862
0.00029838
-0.000599503
0.000215921
-0.000607253
0.000133478
-0.000615172
5.09753e-05
-0.000623303
-3.16558e-05
-0.00063167
-0.00011452
-0.000640288
-0.000197689
-0.000649163
-0.000281243
-0.000658281
-0.000365267
-0.0006676
-0.000449846
-0.000677024
-0.000535054
-0.000686357
-0.000620929
-0.000695251
-0.000707409
-0.000703178
-0.000794235
-0.000709538
-0.000880829
-0.000714077
-0.000966337
-0.000717784
-0.00105015
-0.000724027
-0.00113338
-0.000738709
-0.00122133
-0.000767102
-0.00132499
-0.000805941
-0.00145652
-0.000834824
-0.0016135
-0.000817253
-0.00175661
-0.000718507
-0.00180221
-0.000533344
-0.0016528
-0.000304504
-0.00126415
-0.000111198
-0.000715143
-1.5818e-05
-0.000216801
2.20218e-05
-2.34307e-05
0.000416465
-7.88635e-05
0.000816826
-0.000144083
0.00104042
-0.000208642
0.00121479
-0.000267598
0.00135552
-0.000317654
0.00145058
-0.000356873
0.0014921
-0.000385074
0.00148164
-0.00040382
0.00142877
-0.000415895
0.00134759
-0.000424408
0.0012525
-0.000431891
0.00115464
-0.000439786
0.00106017
-0.000448467
0.000970711
-0.000457652
0.000885223
-0.000466865
0.000801881
-0.000475754
0.000719259
-0.000484191
0.00063666
-0.000492221
0.000553936
-0.00049998
0.000471183
-0.000507611
0.00038852
-0.000515238
0.000306007
-0.000522953
0.000223636
-0.000530827
0.000141352
-0.000538912
5.90608e-05
-0.000547248
-2.33194e-05
-0.000555853
-0.000105915
-0.000564737
-0.000188805
-0.000573902
-0.000272077
-0.000583342
-0.000355827
-0.000593035
-0.000440154
-0.000602929
-0.000525159
-0.000612919
-0.000610939
-0.000622782
-0.000697546
-0.000632118
-0.000784899
-0.000640299
-0.000872647
-0.000646622
-0.000960014
-0.000650871
-0.0010459
-0.000654515
-0.00112973
-0.000662046
-0.0012138
-0.000680487
-0.00130655
-0.000713889
-0.00142312
-0.000752517
-0.00157487
-0.000765501
-0.00174362
-0.000710826
-0.00185688
-0.000564297
-0.00179933
-0.000349324
-0.00147913
-0.00014088
-0.000923587
-2.20923e-05
-0.000335589
-7.0455e-08
-1.3876e-05
0.000430341
-5.79904e-05
0.00086094
-0.000112527
0.00109496
-0.000166603
0.00126886
-0.000215547
0.00140446
-0.000256738
0.00149177
-0.000288861
0.00152422
-0.000312089
0.00150487
-0.000327996
0.00144468
-0.000339019
0.00135861
-0.000347665
0.00126115
-0.0003558
0.00116278
-0.000364331
0.0010687
-0.00037335
0.00097973
-0.000382527
0.000894401
-0.000391495
0.000810849
-0.000400046
0.000727811
-0.000408167
0.000644781
-0.000415962
0.000561732
-0.000423578
0.000478799
-0.000431149
0.000396092
-0.000438781
0.000313639
-0.000446553
0.000231407
-0.000454529
0.000149329
-0.000462763
6.72951e-05
-0.000471296
-1.4786e-05
-0.000480142
-9.7069e-05
-0.000489308
-0.000179639
-0.00049879
-0.000262595
-0.000508578
-0.000346039
-0.000518651
-0.00043008
-0.000528979
-0.000514831
-0.000539501
-0.000600417
-0.000550091
-0.000686956
-0.000560488
-0.000774502
-0.000570211
-0.000862924
-0.000578526
-0.0009517
-0.000584664
-0.00103976
-0.000588642
-0.00112576
-0.000592834
-0.00120961
-0.000603324
-0.00129606
-0.000627775
-0.00139867
-0.000666094
-0.00153656
-0.000697455
-0.00171226
-0.000679744
-0.0018746
-0.000574173
-0.0019049
-0.000383041
-0.00167026
-0.000169629
-0.001137
-2.94117e-05
-0.000475807
-2.94821e-05
-3.86367e-06
0.000434205
-3.57148e-05
0.000892791
-7.89845e-05
0.00113823
-0.000122481
0.00131236
-0.000161726
0.00144371
-0.000194698
0.00152474
-0.000220571
0.0015501
-0.000239695
0.001524
-0.000253457
0.00145844
-0.000263807
0.00136896
-0.000272614
0.00126995
-0.000281153
0.00117132
-0.000289942
0.00107749
-0.000298929
0.000988717
-0.000307828
0.0009033
-0.000316396
0.000819416
-0.000324546
0.000735961
-0.000332335
0.000652569
-0.000339891
0.000569288
-0.000347355
0.000486263
-0.000354844
0.000403581
-0.000362448
0.000321243
-0.000370239
0.000239198
-0.00037828
0.000157371
-0.000386635
7.56496e-05
-0.000395348
-6.07284e-06
-0.000404435
-8.79813e-05
-0.000413901
-0.000170174
-0.000423733
-0.000252762
-0.000433915
-0.000335857
-0.000444424
-0.000419571
-0.000455231
-0.000504024
-0.000466296
-0.000589353
-0.00047754
-0.000675711
-0.000488804
-0.000763238
-0.000499763
-0.000851965
-0.000509832
-0.000941631
-0.00051816
-0.00103143
-0.000524013
-0.0011199
-0.000527982
-0.00120564
-0.000533988
-0.00129005
-0.000549969
-0.00138269
-0.00058227
-0.00150425
-0.000621374
-0.00167316
-0.000631296
-0.00186467
-0.000564696
-0.0019715
-0.000403771
-0.00183118
-0.000195004
-0.00134577
-3.78393e-05
-0.000632972
-6.73215e-05
6.06918e-06
0.000428136
-1.27054e-05
0.000911566
-4.43462e-05
0.00116987
-7.7267e-05
0.00134528
-0.000107132
0.00147357
-0.000132417
0.00155003
-0.00015267
0.00157035
-0.000168274
0.0015396
-0.000180295
0.00147046
-0.000190114
0.00137878
-0.000198974
0.00127881
-0.000207645
0.00117999
-0.000216373
0.00108622
-0.000225057
0.000997401
-0.000233497
0.00091174
-0.000241567
0.000827487
-0.00024927
0.000743664
-0.000256702
0.000660001
-0.000263993
0.00057658
-0.000271268
0.000493539
-0.000278631
0.000410943
-0.000286162
0.000328774
-0.000293928
0.000246965
-0.000301993
0.000165436
-0.000310431
8.40885e-05
-0.000319299
2.79529e-06
-0.000328622
-7.86582e-05
-0.0003384
-0.000160396
-0.000348612
-0.000242549
-0.000359236
-0.000325233
-0.000370244
-0.000408563
-0.000381606
-0.000492663
-0.000393284
-0.000577674
-0.000405225
-0.00066377
-0.000417323
-0.00075114
-0.000429363
-0.000839925
-0.000440925
-0.000930069
-0.000451293
-0.00102106
-0.00045953
-0.00111167
-0.00046516
-0.00120001
-0.000469947
-0.00128526
-0.000480093
-0.00137254
-0.000504656
-0.00147969
-0.000543865
-0.00163395
-0.000571867
-0.00183667
-0.000539284
-0.00200408
-0.00041141
-0.00195906
-0.000215241
-0.00154193
-4.69512e-05
-0.000801262
-0.000114273