/*--------------------------------*- C++ -*----------------------------------*\
  =========                 |
  \\      /  F ield         | OpenFOAM: The Open Source CFD Toolbox
   \\    /   O peration     | Website:  https://openfoam.org
    \\  /    A nd           | Version:  7
     \\/     M anipulation  |
\*---------------------------------------------------------------------------*/
FoamFile
{
    version     2.0;
    format      ascii;
    class       volVectorField;
    location    "1050";
    object      U;
}
// * * * * * * * * * * * * * * * * * * * * * * * * * * * * * * * * * * * * * //

dimensions      [0 1 -1 0 0 0 0];

internalField   nonuniform List<vector> 
2500
(
(0.000207227 -0.000201568 0)
(0.00186721 -0.000571823 0)
(0.00447415 -0.00069807 0)
(0.00716346 -0.000600211 0)
(0.00922962 -0.000419055 0)
(0.0104509 -0.000264363 0)
(0.0109306 -0.000188025 0)
(0.0108814 -0.000185899 0)
(0.0104507 -0.000219887 0)
(0.00963401 -0.000245446 0)
(0.00828206 -0.000228685 0)
(0.00616249 -0.000150752 0)
(0.00301798 -2.5996e-06 0)
(-0.00139523 0.000221153 0)
(-0.0072818 0.000523644 0)
(-0.0147743 0.000908422 0)
(-0.0238952 0.00137551 0)
(-0.0345144 0.00191326 0)
(-0.0463142 0.00248847 0)
(-0.0587684 0.00303884 0)
(-0.0711486 0.00347461 0)
(-0.0825613 0.00369116 0)
(-0.0920173 0.00358999 0)
(-0.0985337 0.00310594 0)
(-0.101245 0.00223328 0)
(-0.0994777 0.00103 0)
(-0.0929631 -0.000373156 0)
(-0.0817745 -0.00181049 0)
(-0.0663791 -0.00310842 0)
(-0.0476335 -0.0041001 0)
(-0.026757 -0.00464053 0)
(-0.00523173 -0.00460703 0)
(0.0154166 -0.00393733 0)
(0.0337178 -0.00278624 0)
(0.0483647 -0.0013733 0)
(0.0584011 0.000123737 0)
(0.0634467 0.00149517 0)
(0.0637138 0.00253289 0)
(0.0600083 0.00311097 0)
(0.0534955 0.00322435 0)
(0.0454073 0.00298627 0)
(0.0368473 0.00254961 0)
(0.0286526 0.00204881 0)
(0.0213432 0.0015745 0)
(0.0151489 0.00117438 0)
(0.010081 0.000863548 0)
(0.0060298 0.000631349 0)
(0.00290162 0.000436115 0)
(0.000795566 0.000192867 0)
(-8.19819e-05 -8.73783e-05 0)
(0.000565779 -0.00181793 0)
(0.0043779 -0.00431452 0)
(0.00958413 -0.00511705 0)
(0.0146056 -0.00444098 0)
(0.0181626 -0.00299837 0)
(0.0197688 -0.00145764 0)
(0.0194626 -0.000192173 0)
(0.0174553 0.000766036 0)
(0.0138318 0.00162584 0)
(0.00840329 0.00266601 0)
(0.000732728 0.00410383 0)
(-0.00973618 0.00604524 0)
(-0.0235326 0.00849442 0)
(-0.0410189 0.0113843 0)
(-0.0622754 0.0145764 0)
(-0.0869945 0.0178452 0)
(-0.114418 0.02087 0)
(-0.143353 0.0232586 0)
(-0.172274 0.0246023 0)
(-0.199503 0.0245438 0)
(-0.223383 0.0228361 0)
(-0.242433 0.0193795 0)
(-0.255455 0.0142383 0)
(-0.261591 0.00764494 0)
(-0.260367 -1.06832e-05 0)
(-0.251717 -0.00821255 0)
(-0.235833 -0.01639 0)
(-0.213164 -0.0239893 0)
(-0.184477 -0.0304478 0)
(-0.150859 -0.0352311 0)
(-0.113722 -0.0378767 0)
(-0.074761 -0.0380414 0)
(-0.0358875 -0.0355804 0)
(0.000964138 -0.0306763 0)
(0.0339488 -0.0238276 0)
(0.0613897 -0.0157603 0)
(0.0819693 -0.00729561 0)
(0.0949659 0.000684045 0)
(0.100245 0.00733521 0)
(0.098419 0.0120755 0)
(0.0909438 0.0147072 0)
(0.0796051 0.0154319 0)
(0.0662291 0.014714 0)
(0.0524137 0.0131072 0)
(0.0393373 0.0111173 0)
(0.0276946 0.00911071 0)
(0.0177742 0.00724927 0)
(0.00968285 0.00543512 0)
(0.00372656 0.00334362 0)
(0.000329356 0.000918692 0)
(0.000785687 -0.00449646 0)
(0.00568943 -0.00969465 0)
(0.0117189 -0.0109174 0)
(0.0169073 -0.0090057 0)
(0.019764 -0.00542347 0)
(0.0197119 -0.0014688 0)
(0.0166688 0.00215397 0)
(0.0106325 0.00542494 0)
(0.00137754 0.00878334 0)
(-0.011628 0.0127955 0)
(-0.0290972 0.0178477 0)
(-0.0516576 0.0240167 0)
(-0.0796146 0.0310913 0)
(-0.112738 0.0386074 0)
(-0.150155 0.0458848 0)
(-0.190388 0.0521047 0)
(-0.23155 0.0564435 0)
(-0.271604 0.0582149 0)
(-0.308626 0.0569726 0)
(-0.34099 0.0525508 0)
(-0.367461 0.0450491 0)
(-0.387193 0.0347827 0)
(-0.399672 0.0222237 0)
(-0.404637 0.00795288 0)
(-0.402018 -0.00737852 0)
(-0.391788 -0.0230886 0)
(-0.373982 -0.0384683 0)
(-0.348871 -0.0527289 0)
(-0.316942 -0.0650325 0)
(-0.278962 -0.0745405 0)
(-0.23602 -0.0804819 0)
(-0.189551 -0.0822466 0)
(-0.141317 -0.0795017 0)
(-0.0933227 -0.072303 0)
(-0.0476784 -0.0611993 0)
(-0.00637903 -0.0471956 0)
(0.0288517 -0.031583 0)
(0.0566556 -0.0158091 0)
(0.0763408 -0.00116397 0)
(0.0876343 0.0111558 0)
(0.0907979 0.0202422 0)
(0.087085 0.0257316 0)
(0.0782007 0.0278556 0)
(0.0660349 0.0273039 0)
(0.0523878 0.024975 0)
(0.0387206 0.0217245 0)
(0.0260338 0.0181226 0)
(0.0149681 0.0142398 0)
(0.00625661 0.0095837 0)
(0.000705249 0.00358709 0)
(0.000917706 -0.007728 0)
(0.00606872 -0.0155926 0)
(0.0115464 -0.016538 0)
(0.0151634 -0.0124511 0)
(0.0154163 -0.00573213 0)
(0.0117466 0.00170192 0)
(0.00392965 0.00894569 0)
(-0.0083835 0.0161078 0)
(-0.0258582 0.0239512 0)
(-0.0493099 0.0332269 0)
(-0.0793758 0.0442147 0)
(-0.116153 0.0565735 0)
(-0.158975 0.0694272 0)
(-0.206385 0.081553 0)
(-0.256346 0.0916217 0)
(-0.306574 0.0984478 0)
(-0.354894 0.101184 0)
(-0.399499 0.0994076 0)
(-0.439055 0.0931051 0)
(-0.472686 0.0825798 0)
(-0.49987 0.0683325 0)
(-0.520305 0.0509578 0)
(-0.533795 0.031085 0)
(-0.540185 0.0093556 0)
(-0.539314 -0.0135698 0)
(-0.530989 -0.0369678 0)
(-0.515083 -0.0599903 0)
(-0.491579 -0.081665 0)
(-0.46058 -0.100927 0)
(-0.422398 -0.116641 0)
(-0.377657 -0.127672 0)
(-0.327374 -0.133011 0)
(-0.27302 -0.131966 0)
(-0.216527 -0.124335 0)
(-0.160211 -0.110551 0)
(-0.106556 -0.0917224 0)
(-0.0579093 -0.0695493 0)
(-0.0161411 -0.0460359 0)
(0.017554 -0.0230961 0)
(0.0425856 -0.00247306 0)
(0.0588918 0.0145965 0)
(0.0667321 0.027189 0)
(0.0672179 0.034929 0)
(0.0619042 0.0381582 0)
(0.0525808 0.0377803 0)
(0.041039 0.0349309 0)
(0.0288301 0.0305674 0)
(0.017189 0.0250319 0)
(0.00742109 0.0177405 0)
(0.00086209 0.00736627 0)
(0.000999765 -0.0110191 0)
(0.00561076 -0.0208279 0)
(0.00922812 -0.0203479 0)
(0.00967587 -0.0129002 0)
(0.00561587 -0.00193281 0)
(-0.0034707 0.0101312 0)
(-0.0180486 0.0223915 0)
(-0.0388734 0.0352918 0)
(-0.066879 0.0497719 0)
(-0.102717 0.0663573 0)
(-0.146286 0.0846751 0)
(-0.196509 0.103494 0)
(-0.251448 0.121084 0)
(-0.308653 0.13565 0)
(-0.36562 0.145707 0)
(-0.420169 0.150304 0)
(-0.470657 0.149074 0)
(-0.515996 0.142141 0)
(-0.555561 0.129961 0)
(-0.589028 0.113158 0)
(-0.616235 0.0923975 0)
(-0.637095 0.068337 0)
(-0.651552 0.0416231 0)
(-0.659529 0.0128839 0)
(-0.660911 -0.0172418 0)
(-0.655564 -0.0480249 0)
(-0.643288 -0.0785924 0)
(-0.623805 -0.107935 0)
(-0.596811 -0.134888 0)
(-0.562076 -0.158093 0)
(-0.519561 -0.176063 0)
(-0.469557 -0.187332 0)
(-0.412867 -0.190657 0)
(-0.350969 -0.185262 0)
(-0.286075 -0.171122 0)
(-0.221019 -0.149169 0)
(-0.158962 -0.121298 0)
(-0.102911 -0.0901108 0)
(-0.0551536 -0.0584597 0)
(-0.0168785 -0.0288634 0)
(0.0117885 -0.0030979 0)
(0.0312276 0.0176349 0)
(0.0419918 0.032665 0)
(0.0452853 0.041838 0)
(0.0426274 0.0456922 0)
(0.0357444 0.0452959 0)
(0.0263993 0.0417582 0)
(0.0162504 0.0355996 0)
(0.00710968 0.0261577 0)
(0.000796466 0.0113833 0)
(0.000995704 -0.0139238 0)
(0.00416117 -0.0242943 0)
(0.00457906 -0.0208768 0)
(0.000392049 -0.00872293 0)
(-0.00947289 0.00766506 0)
(-0.0255783 0.0256056 0)
(-0.0486673 0.0444972 0)
(-0.0797202 0.0650132 0)
(-0.119451 0.0878098 0)
(-0.167676 0.112573 0)
(-0.223049 0.137848 0)
(-0.283268 0.161481 0)
(-0.345565 0.181251 0)
(-0.407246 0.19538 0)
(-0.466091 0.2028 0)
(-0.520517 0.203165 0)
(-0.569547 0.196697 0)
(-0.612676 0.183977 0)
(-0.649713 0.165752 0)
(-0.680656 0.142801 0)
(-0.705625 0.11587 0)
(-0.724827 0.0856736 0)
(-0.738492 0.0528666 0)
(-0.746797 0.0180377 0)
(-0.749845 -0.0182263 0)
(-0.747659 -0.0552864 0)
(-0.74004 -0.0924344 0)
(-0.726534 -0.128813 0)
(-0.706524 -0.163315 0)
(-0.679262 -0.194533 0)
(-0.64395 -0.2208 0)
(-0.599926 -0.240263 0)
(-0.54695 -0.251034 0)
(-0.485482 -0.251497 0)
(-0.41693 -0.240733 0)
(-0.343824 -0.218905 0)
(-0.269739 -0.187524 0)
(-0.198869 -0.149438 0)
(-0.135263 -0.108421 0)
(-0.0819245 -0.0683515 0)
(-0.0401432 -0.0323497 0)
(-0.00954523 -0.00227934 0)
(0.0110366 0.0211271 0)
(0.0227933 0.0375886 0)
(0.0271531 0.0473208 0)
(0.0257795 0.0511054 0)
(0.020463 0.0499364 0)
(0.0130769 0.0443186 0)
(0.00574882 0.0334771 0)
(0.000590966 0.0148941 0)
(0.000839762 -0.0158647 0)
(0.00148272 -0.0247686 0)
(-0.00259865 -0.0166911 0)
(-0.0126914 0.00145561 0)
(-0.0295801 0.0244125 0)
(-0.0539392 0.0495826 0)
(-0.0866684 0.0766574 0)
(-0.128527 0.1061 0)
(-0.179388 0.137663 0)
(-0.237823 0.169799 0)
(-0.301304 0.200027 0)
(-0.366799 0.225714 0)
(-0.431395 0.244744 0)
(-0.492725 0.255857 0)
(-0.549135 0.258661 0)
(-0.599629 0.253437 0)
(-0.64373 0.240889 0)
(-0.681341 0.22193 0)
(-0.712643 0.197536 0)
(-0.738017 0.168644 0)
(-0.757996 0.136128 0)
(-0.77318 0.100755 0)
(-0.784133 0.0631405 0)
(-0.791323 0.0237928 0)
(-0.795098 -0.0168196 0)
(-0.795615 -0.0582831 0)
(-0.792757 -0.100189 0)
(-0.786073 -0.141945 0)
(-0.774841 -0.182688 0)
(-0.757977 -0.221231 0)
(-0.734106 -0.255997 0)
(-0.701723 -0.284952 0)
(-0.659432 -0.305716 0)
(-0.606262 -0.31585 0)
(-0.542125 -0.313258 0)
(-0.468292 -0.296716 0)
(-0.387672 -0.266467 0)
(-0.304756 -0.224658 0)
(-0.225071 -0.175311 0)
(-0.154089 -0.123658 0)
(-0.0958155 -0.0748899 0)
(-0.0517096 -0.0328013 0)
(-0.0207577 0.000852745 0)
(-0.000751827 0.0259356 0)
(0.0103034 0.0427795 0)
(0.0143106 0.0520063 0)
(0.0132056 0.0544127 0)
(0.00901202 0.0503517 0)
(0.00400032 0.038926 0)
(0.000362195 0.017492 0)
(0.000464856 -0.0160967 0)
(-0.00257505 -0.0209708 0)
(-0.0122885 -0.00661287 0)
(-0.0292395 0.0186657 0)
(-0.0539585 0.0492812 0)
(-0.0871971 0.0828893 0)
(-0.129679 0.119137 0)
(-0.181412 0.157678 0)
(-0.241071 0.19696 0)
(-0.306069 0.23427 0)
(-0.373169 0.266561 0)
(-0.439203 0.291294 0)
(-0.501566 0.306906 0)
(-0.558416 0.312864 0)
(-0.608639 0.309457 0)
(-0.651727 0.297517 0)
(-0.687657 0.278173 0)
(-0.71679 0.252671 0)
(-0.739774 0.222239 0)
(-0.757451 0.188002 0)
(-0.770757 0.150923 0)
(-0.78059 0.111743 0)
(-0.787735 0.0709813 0)
(-0.792843 0.0290183 0)
(-0.796389 -0.0138891 0)
(-0.798613 -0.0576019 0)
(-0.799545 -0.10199 0)
(-0.798906 -0.146788 0)
(-0.796073 -0.191539 0)
(-0.78998 -0.235484 0)
(-0.779124 -0.277373 0)
(-0.761578 -0.315358 0)
(-0.735072 -0.347003 0)
(-0.697292 -0.369367 0)
(-0.646401 -0.379274 0)
(-0.581663 -0.37388 0)
(-0.50409 -0.351474 0)
(-0.416951 -0.312317 0)
(-0.325824 -0.259233 0)
(-0.23787 -0.197642 0)
(-0.160285 -0.134625 0)
(-0.0982472 -0.0770268 0)
(-0.0533212 -0.0293941 0)
(-0.0235843 0.00685451 0)
(-0.00556443 0.0324371 0)
(0.0036118 0.0482847 0)
(0.0064566 0.0552417 0)
(0.00528846 0.0535835 0)
(0.00248723 0.042374 0)
(0.000209221 0.0191561 0)
(-0.000172188 -0.0137857 0)
(-0.00796745 -0.011827 0)
(-0.0241252 0.0102077 0)
(-0.0484435 0.0435128 0)
(-0.08124 0.0826499 0)
(-0.123151 0.125401 0)
(-0.174313 0.170836 0)
(-0.233655 0.217358 0)
(-0.298709 0.262114 0)
(-0.366141 0.301653 0)
(-0.43253 0.332914 0)
(-0.49497 0.353884 0)
(-0.551346 0.363758 0)
(-0.600358 0.362761 0)
(-0.641425 0.351837 0)
(-0.674579 0.332361 0)
(-0.700351 0.305908 0)
(-0.719646 0.274067 0)
(-0.73359 0.238289 0)
(-0.743385 0.199794 0)
(-0.750168 0.159506 0)
(-0.754918 0.118044 0)
(-0.758436 0.0757785 0)
(-0.76134 0.0329009 0)
(-0.764066 -0.0105606 0)
(-0.766905 -0.0546587 0)
(-0.77 -0.0994652 0)
(-0.773278 -0.145028 0)
(-0.776402 -0.191295 0)
(-0.778685 -0.237958 0)
(-0.778974 -0.284296 0)
(-0.77548 -0.329039 0)
(-0.76573 -0.370187 0)
(-0.746706 -0.404851 0)
(-0.715178 -0.429335 0)
(-0.668286 -0.439545 0)
(-0.604438 -0.431701 0)
(-0.524315 -0.403381 0)
(-0.431615 -0.354726 0)
(-0.333157 -0.289391 0)
(-0.237979 -0.214592 0)
(-0.155227 -0.139737 0)
(-0.0912544 -0.0736438 0)
(-0.0474074 -0.0215507 0)
(-0.0204331 0.0157915 0)
(-0.00547489 0.0401043 0)
(0.00120316 0.0527715 0)
(0.00267311 0.054382 0)
(0.00160569 0.0441985 0)
(0.000183925 0.0201669 0)
(-0.00107298 -0.00816357 0)
(-0.0144183 0.00341165 0)
(-0.0373716 0.0341497 0)
(-0.0690487 0.0760538 0)
(-0.109505 0.124142 0)
(-0.158995 0.175956 0)
(-0.216774 0.229521 0)
(-0.280684 0.281878 0)
(-0.347451 0.329214 0)
(-0.413462 0.367862 0)
(-0.475489 0.395191 0)
(-0.531089 0.409955 0)
(-0.578715 0.412187 0)
(-0.617668 0.402889 0)
(-0.648005 0.383685 0)
(-0.670414 0.356518 0)
(-0.68604 0.323391 0)
(-0.696279 0.28614 0)
(-0.702565 0.246285 0)
(-0.706203 0.204957 0)
(-0.708266 0.162895 0)
(-0.709576 0.120511 0)
(-0.71073 0.0779783 0)
(-0.712127 0.0352921 0)
(-0.714061 -0.00766199 0)
(-0.716795 -0.0510301 0)
(-0.720475 -0.0949984 0)
(-0.725199 -0.139785 0)
(-0.730977 -0.185563 0)
(-0.737638 -0.232393 0)
(-0.744639 -0.280135 0)
(-0.750849 -0.328268 0)
(-0.754368 -0.375582 0)
(-0.75238 -0.419887 0)
(-0.741145 -0.457834 0)
(-0.716382 -0.48492 0)
(-0.674099 -0.495876 0)
(-0.611778 -0.485643 0)
(-0.529699 -0.450884 0)
(-0.432048 -0.391676 0)
(-0.327151 -0.312811 0)
(-0.226233 -0.223866 0)
(-0.140484 -0.1372 0)
(-0.0771226 -0.0638383 0)
(-0.0365959 -0.00932424 0)
(-0.0137844 0.0267934 0)
(-0.00262835 0.0471403 0)
(0.00130257 0.0532446 0)
(0.00144667 0.0450155 0)
(0.00028821 0.0209445 0)
(-0.00218017 0.00131659 0)
(-0.0214291 0.0250328 0)
(-0.0510257 0.0650746 0)
(-0.0895056 0.115756 0)
(-0.136555 0.172625 0)
(-0.191816 0.23257 0)
(-0.25359 0.292339 0)
(-0.318872 0.347807 0)
(-0.383992 0.394668 0)
(-0.445432 0.429505 0)
(-0.500387 0.450409 0)
(-0.547 0.457039 0)
(-0.58439 0.450333 0)
(-0.612585 0.432118 0)
(-0.632383 0.404721 0)
(-0.645148 0.370604 0)
(-0.65253 0.332046 0)
(-0.656187 0.290919 0)
(-0.657573 0.248584 0)
(-0.657813 0.205896 0)
(-0.657693 0.163299 0)
(-0.657709 0.120945 0)
(-0.658139 0.0788092 0)
(-0.659117 0.0367585 0)
(-0.660753 -0.00537273 0)
(-0.6632 -0.0477533 0)
(-0.666553 -0.0905696 0)
(-0.670991 -0.134024 0)
(-0.676744 -0.178337 0)
(-0.684018 -0.223764 0)
(-0.692864 -0.270555 0)
(-0.703014 -0.318807 0)
(-0.713601 -0.368213 0)
(-0.722784 -0.417732 0)
(-0.727451 -0.465132 0)
(-0.723193 -0.506563 0)
(-0.704688 -0.536467 0)
(-0.666679 -0.548118 0)
(-0.605565 -0.534924 0)
(-0.521293 -0.492462 0)
(-0.418831 -0.420879 0)
(-0.308405 -0.326731 0)
(-0.203737 -0.222904 0)
(-0.117981 -0.125418 0)
(-0.0584604 -0.0473928 0)
(-0.0236477 0.00622951 0)
(-0.00619145 0.0377507 0)
(0.000678422 0.0503833 0)
(0.00180965 0.0453509 0)
(0.000485799 0.0218719 0)
(-0.00335841 0.014888 0)
(-0.0283528 0.0528348 0)
(-0.0639677 0.102357 0)
(-0.108205 0.161536 0)
(-0.160272 0.226376 0)
(-0.219094 0.292818 0)
(-0.282149 0.356351 0)
(-0.345921 0.41205 0)
(-0.406709 0.455583 0)
(-0.461345 0.484128 0)
(-0.507602 0.496702 0)
(-0.544327 0.493975 0)
(-0.571422 0.477863 0)
(-0.589718 0.451043 0)
(-0.600737 0.416468 0)
(-0.606355 0.376928 0)
(-0.608454 0.334719 0)
(-0.608639 0.291481 0)
(-0.608094 0.248204 0)
(-0.607566 0.205354 0)
(-0.607445 0.163042 0)
(-0.607872 0.121184 0)
(-0.608843 0.0796154 0)
(-0.610292 0.0381577 0)
(-0.612179 -0.00334821 0)
(-0.614549 -0.0450331 0)
(-0.617449 -0.0870045 0)
(-0.621031 -0.129364 0)
(-0.625546 -0.172267 0)
(-0.631324 -0.215955 0)
(-0.63876 -0.260765 0)
(-0.648217 -0.307105 0)
(-0.659788 -0.355353 0)
(-0.67293 -0.405577 0)
(-0.686 -0.457011 0)
(-0.695768 -0.507368 0)
(-0.69717 -0.552229 0)
(-0.683699 -0.584804 0)
(-0.648726 -0.596525 0)
(-0.587616 -0.578862 0)
(-0.500198 -0.526266 0)
(-0.392676 -0.439511 0)
(-0.27779 -0.328023 0)
(-0.172112 -0.209276 0)
(-0.0902959 -0.103579 0)
(-0.0383246 -0.0252848 0)
(-0.0113395 0.0228978 0)
(-0.000155914 0.0453587 0)
(0.00229659 0.0453488 0)
(0.000720585 0.0231542 0)
(-0.00444375 0.0323982 0)
(-0.0345371 0.0861526 0)
(-0.0751409 0.14494 0)
(-0.12372 0.211886 0)
(-0.17894 0.283359 0)
(-0.239047 0.354224 0)
(-0.300933 0.418926 0)
(-0.360908 0.472158 0)
(-0.415509 0.509947 0)
(-0.462097 0.530333 0)
(-0.499145 0.533408 0)
(-0.526299 0.520953 0)
(-0.544298 0.495885 0)
(-0.554722 0.461643 0)
(-0.559619 0.421595 0)
(-0.561079 0.378561 0)
(-0.560874 0.334553 0)
(-0.56027 0.290751 0)
(-0.560006 0.247664 0)
(-0.560391 0.205357 0)
(-0.561453 0.163668 0)
(-0.563081 0.122366 0)
(-0.565116 0.0812363 0)
(-0.567405 0.0401134 0)
(-0.569843 -0.00111805 0)
(-0.572428 -0.0425228 0)
(-0.575183 -0.0841282 0)
(-0.578172 -0.12595 0)
(-0.58155 -0.168035 0)
(-0.585581 -0.210492 0)
(-0.590671 -0.25354 0)
(-0.597365 -0.297577 0)
(-0.606271 -0.343212 0)
(-0.617862 -0.391151 0)
(-0.632049 -0.441866 0)
(-0.64749 -0.494951 0)
(-0.660839 -0.548145 0)
(-0.666339 -0.596299 0)
(-0.656244 -0.63095 0)
(-0.622459 -0.64119 0)
(-0.559388 -0.616278 0)
(-0.467234 -0.549775 0)
(-0.354302 -0.444115 0)
(-0.236668 -0.313372 0)
(-0.133892 -0.181267 0)
(-0.0609086 -0.0724339 0)
(-0.0200589 -0.000211418 0)
(-0.00227021 0.0369342 0)
(0.00246908 0.0446238 0)
(0.00093993 0.0247518 0)
(-0.00528789 0.0532852 0)
(-0.039421 0.123928 0)
(-0.0836873 0.19145 0)
(-0.134985 0.265073 0)
(-0.19144 0.341495 0)
(-0.250752 0.414562 0)
(-0.309504 0.47798 0)
(-0.364101 0.526453 0)
(-0.411513 0.556682 0)
(-0.449751 0.567763 0)
(-0.478066 0.560987 0)
(-0.496934 0.53928 0)
(-0.507852 0.506482 0)
(-0.512946 0.466578 0)
(-0.514478 0.423027 0)
(-0.514406 0.378352 0)
(-0.514117 0.334034 0)
(-0.514382 0.290688 0)
(-0.515471 0.248353 0)
(-0.517335 0.206787 0)
(-0.51978 0.16568 0)
(-0.522591 0.12476 0)
(-0.525585 0.0838396 0)
(-0.528622 0.0428015 0)
(-0.531614 0.00158575 0)
(-0.534564 -0.039821 0)
(-0.537493 -0.0814037 0)
(-0.540391 -0.123136 0)
(-0.543313 -0.164987 0)
(-0.546377 -0.206941 0)
(-0.549805 -0.249051 0)
(-0.553988 -0.291519 0)
(-0.559547 -0.33479 0)
(-0.567323 -0.379632 0)
(-0.578172 -0.427104 0)
(-0.592451 -0.478198 0)
(-0.609158 -0.532932 0)
(-0.624866 -0.588951 0)
(-0.633002 -0.640059 0)
(-0.62433 -0.675588 0)
(-0.589241 -0.681672 0)
(-0.521587 -0.645115 0)
(-0.422856 -0.559346 0)
(-0.304657 -0.43046 0)
(-0.187289 -0.279815 0)
(-0.0928392 -0.138955 0)
(-0.0339635 -0.0351943 0)
(-0.00650478 0.0231643 0)
(0.00201156 0.0423061 0)
(0.00111636 0.0264146 0)
(-0.00576955 0.076643 0)
(-0.0425924 0.164827 0)
(-0.0890337 0.240341 0)
(-0.141384 0.319324 0)
(-0.197292 0.398888 0)
(-0.254094 0.472033 0)
(-0.308314 0.532066 0)
(-0.356656 0.57404 0)
(-0.396647 0.595566 0)
(-0.427014 0.596946 0)
(-0.447795 0.580727 0)
(-0.460218 0.550924 0)
(-0.46634 0.512097 0)
(-0.468529 0.468452 0)
(-0.46893 0.423197 0)
(-0.469102 0.378288 0)
(-0.469913 0.334564 0)
(-0.471642 0.292095 0)
(-0.474199 0.250573 0)
(-0.477336 0.209599 0)
(-0.480791 0.168838 0)
(-0.484367 0.128068 0)
(-0.487941 0.0871633 0)
(-0.491435 0.0460669 0)
(-0.494814 0.00476125 0)
(-0.498109 -0.0367449 0)
(-0.501349 -0.0784281 0)
(-0.5045 -0.12026 0)
(-0.507555 -0.162186 0)
(-0.510514 -0.204141 0)
(-0.51341 -0.246067 0)
(-0.516382 -0.287958 0)
(-0.519773 -0.329963 0)
(-0.524232 -0.372546 0)
(-0.530766 -0.416661 0)
(-0.540591 -0.463762 0)
(-0.55456 -0.515388 0)
(-0.571994 -0.571997 0)
(-0.589199 -0.630983 0)
(-0.598491 -0.684533 0)
(-0.588927 -0.718851 0)
(-0.549482 -0.716379 0)
(-0.474196 -0.661695 0)
(-0.367292 -0.549886 0)
(-0.245305 -0.394002 0)
(-0.133335 -0.226067 0)
(-0.0540391 -0.0858348 0)
(-0.0133511 0.00163174 0)
(0.000772303 0.0372152 0)
(0.00125372 0.0277838 0)
(-0.00581323 0.101338 0)
(-0.043819 0.207369 0)
(-0.0909166 0.290036 0)
(-0.142749 0.372989 0)
(-0.196589 0.453955 0)
(-0.249602 0.525338 0)
(-0.298452 0.580367 0)
(-0.340277 0.614708 0)
(-0.373224 0.627065 0)
(-0.396738 0.619025 0)
(-0.411569 0.594364 0)
(-0.419514 0.558019 0)
(-0.422919 0.514972 0)
(-0.424085 0.469302 0)
(-0.424788 0.423678 0)
(-0.426064 0.379357 0)
(-0.428277 0.336552 0)
(-0.431341 0.294925 0)
(-0.434974 0.253984 0)
(-0.43888 0.213313 0)
(-0.442844 0.172643 0)
(-0.446748 0.131839 0)
(-0.45055 0.0908464 0)
(-0.45424 0.0496526 0)
(-0.457823 0.00825999 0)
(-0.46136 -0.0333216 0)
(-0.46489 -0.0750779 0)
(-0.468386 -0.117 0)
(-0.471821 -0.159053 0)
(-0.475146 -0.201181 0)
(-0.478297 -0.243292 0)
(-0.481228 -0.285279 0)
(-0.483982 -0.327069 0)
(-0.486811 -0.368756 0)
(-0.49036 -0.410818 0)
(-0.495803 -0.454388 0)
(-0.504726 -0.501378 0)
(-0.518428 -0.553991 0)
(-0.536432 -0.613078 0)
(-0.554497 -0.675292 0)
(-0.563368 -0.730201 0)
(-0.550064 -0.759679 0)
(-0.502542 -0.741879 0)
(-0.416492 -0.660246 0)
(-0.301032 -0.515002 0)
(-0.179304 -0.331199 0)
(-0.0805112 -0.15485 0)
(-0.0231574 -0.0304628 0)
(-0.00128222 0.0280196 0)
(0.00137144 0.0284822 0)
(-0.00539574 0.126127 0)
(-0.043045 0.250047 0)
(-0.0893555 0.339046 0)
(-0.13929 0.424646 0)
(-0.189863 0.505489 0)
(-0.238238 0.573669 0)
(-0.281366 0.622606 0)
(-0.316889 0.648785 0)
(-0.343579 0.652105 0)
(-0.361531 0.635448 0)
(-0.372054 0.603697 0)
(-0.377276 0.562462 0)
(-0.379556 0.516812 0)
(-0.380889 0.470404 0)
(-0.382559 0.4252 0)
(-0.385099 0.381756 0)
(-0.388491 0.339794 0)
(-0.392452 0.298736 0)
(-0.396661 0.25806 0)
(-0.400878 0.217426 0)
(-0.404979 0.17667 0)
(-0.408935 0.13574 0)
(-0.412771 0.094635 0)
(-0.416516 0.0533644 0)
(-0.420194 0.0119322 0)
(-0.423878 -0.0296616 0)
(-0.427619 -0.0714165 0)
(-0.4314 -0.113348 0)
(-0.4352 -0.155451 0)
(-0.438974 -0.1977 0)
(-0.442642 -0.240035 0)
(-0.446091 -0.282344 0)
(-0.449193 -0.324476 0)
(-0.451891 -0.366286 0)
(-0.454358 -0.407794 0)
(-0.457236 -0.449497 0)
(-0.461862 -0.492789 0)
(-0.470204 -0.540172 0)
(-0.483998 -0.594587 0)
(-0.502732 -0.657054 0)
(-0.521022 -0.72263 0)
(-0.527355 -0.776682 0)
(-0.506595 -0.795187 0)
(-0.446789 -0.752003 0)
(-0.347659 -0.632483 0)
(-0.225946 -0.448138 0)
(-0.112327 -0.242545 0)
(-0.0364001 -0.0761159 0)
(-0.0042257 0.0132182 0)
(0.00146094 0.0281003 0)
(-0.00454181 0.149772 0)
(-0.040363 0.291425 0)
(-0.0845929 0.386049 0)
(-0.131489 0.473149 0)
(-0.177924 0.552657 0)
(-0.221193 0.616639 0)
(-0.258621 0.658923 0)
(-0.288377 0.676943 0)
(-0.309803 0.67183 0)
(-0.323517 0.647686 0)
(-0.33119 0.61031 0)
(-0.335043 0.56569 0)
(-0.33722 0.518691 0)
(-0.339287 0.472345 0)
(-0.342039 0.427876 0)
(-0.345613 0.385247 0)
(-0.349773 0.343855 0)
(-0.354185 0.303049 0)
(-0.358583 0.262376 0)
(-0.362827 0.221611 0)
(-0.366883 0.180689 0)
(-0.370787 0.139618 0)
(-0.374598 0.098424 0)
(-0.378362 0.0571185 0)
(-0.382101 0.0156963 0)
(-0.385885 -0.0258558 0)
(-0.389771 -0.0675493 0)
(-0.393752 -0.109418 0)
(-0.397812 -0.151479 0)
(-0.401929 -0.19374 0)
(-0.406048 -0.236183 0)
(-0.410067 -0.278749 0)
(-0.413829 -0.321309 0)
(-0.417145 -0.36366 0)
(-0.419869 -0.405575 0)
(-0.422094 -0.447011 0)
(-0.424485 -0.488531 0)
(-0.428616 -0.531907 0)
(-0.436895 -0.580437 0)
(-0.451382 -0.637895 0)
(-0.471041 -0.704933 0)
(-0.488477 -0.773352 0)
(-0.489172 -0.82193 0)
(-0.456233 -0.819325 0)
(-0.380047 -0.736923 0)
(-0.267935 -0.568395 0)
(-0.146917 -0.345972 0)
(-0.0533949 -0.137542 0)
(-0.0082236 -0.00882166 0)
(0.00147427 0.0261821 0)
(-0.0033141 0.171128 0)
(-0.0359752 0.330205 0)
(-0.0770215 0.429936 0)
(-0.119993 0.517641 0)
(-0.161716 0.594955 0)
(-0.199709 0.654189 0)
(-0.231719 0.689734 0)
(-0.256407 0.70003 0)
(-0.273592 0.687404 0)
(-0.284257 0.657042 0)
(-0.290228 0.61542 0)
(-0.293613 0.568634 0)
(-0.296213 0.521128 0)
(-0.299139 0.47523 0)
(-0.302783 0.431492 0)
(-0.307031 0.389443 0)
(-0.311571 0.348322 0)
(-0.31611 0.307515 0)
(-0.320478 0.266685 0)
(-0.324629 0.225721 0)
(-0.328593 0.184629 0)
(-0.33244 0.143448 0)
(-0.336239 0.102207 0)
(-0.340035 0.0609077 0)
(-0.343839 0.0195323 0)
(-0.34771 -0.0219451 0)
(-0.351712 -0.0635437 0)
(-0.355838 -0.105309 0)
(-0.360076 -0.147272 0)
(-0.364418 -0.18946 0)
(-0.368838 -0.231892 0)
(-0.373273 -0.274559 0)
(-0.377607 -0.317401 0)
(-0.381653 -0.360267 0)
(-0.385161 -0.402895 0)
(-0.387904 -0.444972 0)
(-0.389933 -0.486399 0)
(-0.392006 -0.527902 0)
(-0.39603 -0.571888 0)
(-0.404916 -0.622769 0)
(-0.420825 -0.685057 0)
(-0.441363 -0.757748 0)
(-0.455849 -0.826579 0)
(-0.446255 -0.860741 0)
(-0.395633 -0.821403 0)
(-0.300722 -0.683119 0)
(-0.18074 -0.459456 0)
(-0.0735943 -0.215094 0)
(-0.0135225 -0.039885 0)
(0.00138981 0.022247 0)
(-0.00180153 0.189217 0)
(-0.0301531 0.365271 0)
(-0.067115 0.469823 0)
(-0.105511 0.557523 0)
(-0.142194 0.632143 0)
(-0.174957 0.686487 0)
(-0.201971 0.715599 0)
(-0.222332 0.718917 0)
(-0.23621 0.699869 0)
(-0.244785 0.66454 0)
(-0.249858 0.619853 0)
(-0.253285 0.571791 0)
(-0.256471 0.524257 0)
(-0.260129 0.478899 0)
(-0.264368 0.435725 0)
(-0.268956 0.393991 0)
(-0.273594 0.352901 0)
(-0.278075 0.311937 0)
(-0.282322 0.270887 0)
(-0.286356 0.229726 0)
(-0.290242 0.1885 0)
(-0.294057 0.147254 0)
(-0.29787 0.106007 0)
(-0.301716 0.0647488 0)
(-0.305596 0.023446 0)
(-0.309553 -0.0179369 0)
(-0.31366 -0.059423 0)
(-0.317915 -0.101067 0)
(-0.322294 -0.142907 0)
(-0.3268 -0.184981 0)
(-0.331421 -0.227327 0)
(-0.336127 -0.269974 0)
(-0.34085 -0.31292 0)
(-0.345462 -0.356101 0)
(-0.349742 -0.399333 0)
(-0.353384 -0.442278 0)
(-0.356099 -0.484519 0)
(-0.357939 -0.525956 0)
(-0.359866 -0.567688 0)
(-0.3643 -0.613166 0)
(-0.374693 -0.668265 0)
(-0.392728 -0.737661 0)
(-0.413208 -0.816026 0)
(-0.420767 -0.878672 0)
(-0.394537 -0.882471 0)
(-0.321417 -0.784805 0)
(-0.210228 -0.575937 0)
(-0.0954007 -0.306733 0)
(-0.0203469 -0.0816475 0)
(0.00124981 0.0158113 0)
(-0.000108303 0.203262 0)
(-0.0232031 0.3957 0)
(-0.0553712 0.505037 0)
(-0.088745 0.592418 0)
(-0.120245 0.664176 0)
(-0.147955 0.713832 0)
(-0.170449 0.737116 0)
(-0.187171 0.734399 0)
(-0.198517 0.710067 0)
(-0.205708 0.67091 0)
(-0.210379 0.624092 0)
(-0.214063 0.575339 0)
(-0.217785 0.527989 0)
(-0.221949 0.483097 0)
(-0.226495 0.440273 0)
(-0.231168 0.398631 0)
(-0.235733 0.357417 0)
(-0.240071 0.316231 0)
(-0.244175 0.274961 0)
(-0.248103 0.23364 0)
(-0.251933 0.192328 0)
(-0.255736 0.151061 0)
(-0.259573 0.109844 0)
(-0.263474 0.068652 0)
(-0.26743 0.0274427 0)
(-0.271469 -0.0138292 0)
(-0.275679 -0.0551882 0)
(-0.280063 -0.0966993 0)
(-0.284582 -0.138403 0)
(-0.289241 -0.180345 0)
(-0.294033 -0.222573 0)
(-0.298943 -0.265132 0)
(-0.303935 -0.308062 0)
(-0.308936 -0.351366 0)
(-0.313799 -0.394964 0)
(-0.318267 -0.438617 0)
(-0.321972 -0.481881 0)
(-0.324585 -0.524236 0)
(-0.326247 -0.565699 0)
(-0.328318 -0.608126 0)
(-0.333942 -0.656658 0)
(-0.346927 -0.718834 0)
(-0.36727 -0.797576 0)
(-0.384901 -0.878206 0)
(-0.379022 -0.920118 0)
(-0.329086 -0.868343 0)
(-0.232629 -0.688406 0)
(-0.116658 -0.40847 0)
(-0.0286965 -0.135258 0)
(0.00111668 0.00636355 0)
(0.0016559 0.212705 0)
(-0.0154417 0.42076 0)
(-0.0422724 0.535086 0)
(-0.0703375 0.622118 0)
(-0.096639 0.691132 0)
(-0.119537 0.736572 0)
(-0.137968 0.754845 0)
(-0.151637 0.747139 0)
(-0.161044 0.718629 0)
(-0.167322 0.676622 0)
(-0.171854 0.628365 0)
(-0.175824 0.579267 0)
(-0.179929 0.532141 0)
(-0.184359 0.487571 0)
(-0.188982 0.444901 0)
(-0.193572 0.403197 0)
(-0.197972 0.361786 0)
(-0.202133 0.320371 0)
(-0.206094 0.278915 0)
(-0.20993 0.237481 0)
(-0.213712 0.196127 0)
(-0.217503 0.154875 0)
(-0.221357 0.113714 0)
(-0.225302 0.0726127 0)
(-0.229326 0.0315179 0)
(-0.233438 -0.00962345 0)
(-0.237746 -0.0508361 0)
(-0.242266 -0.0921974 0)
(-0.246936 -0.133752 0)
(-0.251763 -0.175549 0)
(-0.256736 -0.217641 0)
(-0.261847 -0.260082 0)
(-0.267073 -0.302931 0)
(-0.272376 -0.346234 0)
(-0.277667 -0.389993 0)
(-0.282771 -0.434093 0)
(-0.287381 -0.478201 0)
(-0.291073 -0.521727 0)
(-0.293518 -0.564082 0)
(-0.295097 -0.605683 0)
(-0.297847 -0.649855 0)
(-0.30581 -0.704239 0)
(-0.322441 -0.777318 0)
(-0.34377 -0.865582 0)
(-0.352636 -0.937078 0)
(-0.32453 -0.931347 0)
(-0.246423 -0.790995 0)
(-0.135314 -0.515257 0)
(-0.0381817 -0.200489 0)
(0.00096817 -0.00656524 0)
(0.00338516 0.217235 0)
(-0.00717782 0.439866 0)
(-0.0282671 0.559626 0)
(-0.0508518 0.646536 0)
(-0.0720161 0.713156 0)
(-0.0903549 0.755052 0)
(-0.105118 0.769263 0)
(-0.116191 0.757646 0)
(-0.124075 0.725984 0)
(-0.129724 0.681936 0)
(-0.134215 0.632735 0)
(-0.138398 0.583468 0)
(-0.142708 0.536512 0)
(-0.147202 0.492109 0)
(-0.151733 0.449445 0)
(-0.156135 0.407593 0)
(-0.16032 0.365965 0)
(-0.164292 0.324348 0)
(-0.16811 0.282752 0)
(-0.17185 0.241251 0)
(-0.175577 0.199892 0)
(-0.179342 0.158684 0)
(-0.183194 0.117604 0)
(-0.187166 0.0766151 0)
(-0.191244 0.0356594 0)
(-0.195413 -0.00532482 0)
(-0.19981 -0.0463652 0)
(-0.20447 -0.0875515 0)
(-0.209306 -0.128935 0)
(-0.21432 -0.17057 0)
(-0.219503 -0.212509 0)
(-0.224841 -0.254812 0)
(-0.23032 -0.297545 0)
(-0.235914 -0.340778 0)
(-0.241571 -0.384566 0)
(-0.24718 -0.428891 0)
(-0.252525 -0.473564 0)
(-0.257235 -0.518103 0)
(-0.260837 -0.561741 0)
(-0.263097 -0.603971 0)
(-0.264893 -0.64621 0)
(-0.269315 -0.694401 0)
(-0.281148 -0.759222 0)
(-0.301575 -0.846764 0)
(-0.319335 -0.937749 0)
(-0.309784 -0.973889 0)
(-0.251364 -0.879586 0)
(-0.149888 -0.621963 0)
(-0.0480722 -0.275579 0)
(0.000664031 -0.0234196 0)
(0.00493799 0.216664 0)
(0.00128335 0.452675 0)
(-0.0137546 0.578401 0)
(-0.0307688 0.665658 0)
(-0.0468891 0.730413 0)
(-0.0608943 0.769573 0)
(-0.0722989 0.78074 0)
(-0.0811023 0.766278 0)
(-0.0877273 0.732399 0)
(-0.0928902 0.686973 0)
(-0.0973419 0.637169 0)
(-0.101626 0.587801 0)
(-0.105977 0.540924 0)
(-0.110376 0.496552 0)
(-0.1147 0.453796 0)
(-0.118848 0.411761 0)
(-0.122788 0.369931 0)
(-0.126556 0.328154 0)
(-0.13022 0.286465 0)
(-0.13385 0.244937 0)
(-0.137502 0.203606 0)
(-0.141218 0.162468 0)
(-0.145044 0.121492 0)
(-0.149021 0.0806386 0)
(-0.153136 0.0398521 0)
(-0.157344 -0.00093771 0)
(-0.161816 -0.0417758 0)
(-0.166618 -0.0827517 0)
(-0.171632 -0.123935 0)
(-0.176854 -0.165379 0)
(-0.182274 -0.207143 0)
(-0.187876 -0.249284 0)
(-0.193647 -0.291874 0)
(-0.199565 -0.334995 0)
(-0.205596 -0.378732 0)
(-0.211669 -0.423134 0)
(-0.217635 -0.468131 0)
(-0.22322 -0.513398 0)
(-0.227983 -0.558237 0)
(-0.231443 -0.601736 0)
(-0.23365 -0.643885 0)
(-0.236391 -0.688293 0)
(-0.244107 -0.74502 0)
(-0.261173 -0.826429 0)
(-0.282769 -0.927082 0)
(-0.287499 -0.997896 0)
(-0.248223 -0.95193 0)
(-0.159642 -0.724091 0)
(-0.0575348 -0.357767 0)
(-5.16094e-06 -0.0446249 0)
(0.00615955 0.211223 0)
(0.00957883 0.458746 0)
(0.000940616 0.591318 0)
(-0.0104885 0.679494 0)
(-0.0216643 0.743055 0)
(-0.0315116 0.780363 0)
(-0.039772 0.789534 0)
(-0.0465069 0.773261 0)
(-0.0520135 0.738011 0)
(-0.0567354 0.691757 0)
(-0.0610976 0.641593 0)
(-0.0653693 0.592135 0)
(-0.0696264 0.545236 0)
(-0.0738158 0.500788 0)
(-0.0778549 0.457881 0)
(-0.0817009 0.41566 0)
(-0.0853689 0.373663 0)
(-0.0889135 0.331773 0)
(-0.0924017 0.290036 0)
(-0.0958955 0.248517 0)
(-0.0994442 0.207244 0)