/*--------------------------------*- C++ -*----------------------------------*\
  =========                 |
  \\      /  F ield         | OpenFOAM: The Open Source CFD Toolbox
   \\    /   O peration     | Website:  https://openfoam.org
    \\  /    A nd           | Version:  7
     \\/     M anipulation  |
\*---------------------------------------------------------------------------*/
FoamFile
{
    version     2.0;
    format      ascii;
    class       volScalarField;
    location    "200";
    object      p;
}
// * * * * * * * * * * * * * * * * * * * * * * * * * * * * * * * * * * * * * //

dimensions      [0 2 -2 0 0 0 0];

internalField   nonuniform List<scalar> 
2500
(
3.08735e-06
7.71082e-05
-4.5089e-06
-0.000306456
-0.000784362
-0.00137575
-0.00204074
-0.00277536
-0.00360592
-0.00457353
-0.00571843
-0.00707061
-0.00864699
-0.010447
-0.0124464
-0.0145896
-0.0167823
-0.0188899
-0.0207433
-0.0221559
-0.022948
-0.0229749
-0.0221559
-0.0205017
-0.0181329
-0.0152729
-0.0122406
-0.00945416
-0.00738246
-0.00647603
-0.007087
-0.00938321
-0.0132675
-0.0184566
-0.0245077
-0.0308581
-0.0369694
-0.0424243
-0.0469761
-0.0505375
-0.0531486
-0.0549375
-0.0560754
-0.0567375
-0.0570763
-0.057209
-0.0572149
-0.0571376
-0.0570001
-0.0568611
-6.20812e-05
1.00893e-05
-7.59776e-05
-0.000375397
-0.000830881
-0.00137828
-0.00198283
-0.00264656
-0.0033986
-0.00427969
-0.00532883
-0.00657608
-0.00804228
-0.00973488
-0.0116417
-0.0137249
-0.015912
-0.0180887
-0.0200985
-0.0217531
-0.0228547
-0.023228
-0.0227531
-0.0213997
-0.0192563
-0.0165347
-0.013569
-0.010797
-0.00870607
-0.00776665
-0.00834757
-0.0106324
-0.0145611
-0.0198102
-0.0258764
-0.032212
-0.03826
-0.0435626
-0.0478593
-0.0511059
-0.0534107
-0.0549507
-0.0559176
-0.0564845
-0.0567887
-0.0569289
-0.0569682
-0.056937
-0.056837
-0.0567055
-9.80425e-06
5.76399e-05
-5.19077e-05
-0.000377391
-0.000832551
-0.00134164
-0.00187499
-0.00244622
-0.00309692
-0.003875
-0.00482499
-0.00598773
-0.00740198
-0.00910276
-0.0111101
-0.0134122
-0.0159464
-0.0185877
-0.0211488
-0.0233979
-0.0250896
-0.0260044
-0.0259846
-0.0249727
-0.0230534
-0.0204501
-0.0174978
-0.0146304
-0.0123465
-0.0111394
-0.0114113
-0.0133848
-0.0170409
-0.0221
-0.0280666
-0.0343227
-0.0402745
-0.0454682
-0.0496053
-0.052601
-0.0545692
-0.0557482
-0.0563914
-0.0567054
-0.0568369
-0.0568777
-0.056876
-0.0568426
-0.0567478
-0.0566038
0.000241424
0.000277235
0.000109559
-0.000274803
-0.000752825
-0.00123587
-0.00170382
-0.00218972
-0.00275547
-0.00347299
-0.00441693
-0.00566835
-0.00731374
-0.0094309
-0.012062
-0.0151841
-0.0186895
-0.0223842
-0.0260063
-0.0292593
-0.0318539
-0.0335465
-0.0341685
-0.0336515
-0.0320616
-0.0295974
-0.0265677
-0.0233923
-0.0205695
-0.018616
-0.0179872
-0.0189866
-0.0216901
-0.025909
-0.0312104
-0.036997
-0.0426389
-0.0476023
-0.0515674
-0.0544292
-0.0562264
-0.0571571
-0.0574979
-0.0575106
-0.0573824
-0.0572261
-0.0570942
-0.0569894
-0.0568601
-0.0566957
0.000726214
0.000692887
0.000430005
-3.49093e-05
-0.000547703
-0.00102305
-0.00145643
-0.00190931
-0.00248406
-0.00330467
-0.00451062
-0.00625199
-0.00866885
-0.0118551
-0.0158205
-0.0204679
-0.0255934
-0.0309097
-0.0360812
-0.040764
-0.0446422
-0.0474581
-0.0490331
-0.0492809
-0.0482272
-0.0460136
-0.0428997
-0.0392672
-0.0355879
-0.032382
-0.0301542
-0.0293121
-0.0300823
-0.0324476
-0.0361291
-0.0406332
-0.0453586
-0.0497324
-0.0533348
-0.0559595
-0.0576205
-0.0584672
-0.0586863
-0.0585233
-0.0581994
-0.0578609
-0.0575838
-0.0573833
-0.0572077
-0.0570316
0.0014885
0.00135031
0.000967285
0.00041359
-0.000154216
-0.000662876
-0.00113917
-0.0016984
-0.00251266
-0.0037912
-0.00576206
-0.00863935
-0.0125753
-0.0176139
-0.023666
-0.0305142
-0.0378418
-0.0452733
-0.0524145
-0.0588877
-0.0643594
-0.0685632
-0.0713149
-0.072517
-0.0721657
-0.0703424
-0.0672389
-0.0631703
-0.0585401
-0.0538229
-0.049526
-0.0461322
-0.0440255
-0.0434147
-0.0442763
-0.046344
-0.0491619
-0.0521955
-0.0549632
-0.0571376
-0.0585815
-0.0593296
-0.0595403
-0.0593754
-0.0590044
-0.0585877
-0.0582265
-0.0579603
-0.0577565
-0.0575864
0.00256525
0.00229814
0.00178633
0.00113315
0.000473961
-0.000150345
-0.000831012
-0.00176723
-0.00323197
-0.00553755
-0.00898478
-0.013797
-0.020061
-0.0276971
-0.036469
-0.0460197
-0.0559216
-0.0657227
-0.0749866
-0.0833215
-0.0904018
-0.0959801
-0.0998913
-0.102049
-0.102447
-0.101136
-0.0982365
-0.0939757
-0.0886493
-0.0826244
-0.0763301
-0.0702343
-0.0648027
-0.0604382
-0.0574098
-0.055792
-0.0554389
-0.0560167
-0.0570934
-0.0582555
-0.0592013
-0.0597791
-0.0599788
-0.0598844
-0.0595997
-0.0592354
-0.0588913
-0.0586263
-0.0584331
-0.05829
0.00396084
0.00355818
0.00291698
0.00214156
0.00132179
0.000426156
-0.000734612
-0.00247339
-0.00517712
-0.00923737
-0.0149613
-0.0224911
-0.0317635
-0.0425193
-0.054349
-0.0667562
-0.0792169
-0.0912303
-0.102353
-0.112223
-0.120566
-0.127194
-0.131993
-0.134909
-0.135958
-0.135202
-0.132708
-0.128615
-0.123099
-0.116384
-0.108748
-0.100538
-0.0921628
-0.0840809
-0.0767587
-0.0706059
-0.065897
-0.0627052
-0.0608787
-0.060085
-0.0599151
-0.0600002
-0.0600882
-0.0600665
-0.0599289
-0.0597158
-0.0594894
-0.0593035
-0.0591669
-0.0590686
0.00561654
0.00508592
0.00431045
0.00336937
0.00226205
0.000845661
-0.00119581
-0.00429986
-0.00894024
-0.0155145
-0.0242348
-0.0350663
-0.0477291
-0.0617532
-0.0765577
-0.0915305
-0.106095
-0.119757
-0.132124
-0.142916
-0.151954
-0.159139
-0.164426
-0.167802
-0.169314
-0.169055
-0.16707
-0.163432
-0.158219
-0.151524
-0.143465
-0.134205
-0.123981
-0.113132
-0.102117
-0.0915048
-0.0819133
-0.0739052
-0.067849
-0.0638043
-0.0615005
-0.0604433
-0.0600978
-0.060046
-0.0600535
-0.060041
-0.0600029
-0.0599613
-0.0599201
-0.0598777
0.00737735
0.00673326
0.00581199
0.00462174
0.00302763
0.000746483
-0.00267517
-0.007774
-0.0150371
-0.0247612
-0.0369579
-0.0513389
-0.0673735
-0.0843866
-0.101663
-0.118538
-0.134455
-0.148998
-0.161888
-0.172962
-0.182151
-0.189447
-0.194869
-0.198442
-0.200231
-0.200356
-0.198853
-0.195762
-0.191108
-0.184905
-0.177154
-0.167861
-0.157064
-0.144883
-0.131578
-0.117615
-0.103689
-0.0906832
-0.0795162
-0.0709007
-0.0651002
-0.0618313
-0.0604051
-0.0600355
-0.0601101
-0.0602945
-0.0604788
-0.0606209
-0.0606995
-0.0607165
0.00898121
0.00824264
0.00713887
0.00556525
0.00321848
-0.000336408
-0.00567072
-0.0133537
-0.0237804
-0.0370356
-0.0528469
-0.0706354
-0.0896294
-0.108999
-0.127974
-0.145928
-0.162408
-0.177137
-0.189974
-0.20088
-0.209881
-0.217032
-0.222394
-0.226014
-0.227958
-0.228349
-0.227219
-0.224598
-0.220497
-0.214903
-0.20777
-0.199023
-0.188565
-0.176317
-0.162281
-0.14664
-0.129865
-0.112803
-0.0966458
-0.0827226
-0.0721093
-0.0652191
-0.0616343
-0.0603485
-0.0602663
-0.0606072
-0.0610066
-0.0613443
-0.0615517
-0.0616286
0.010073
0.00924336
0.00788952
0.00575557
0.00235271
-0.00289245
-0.0106156
-0.0213224
-0.0352053
-0.0520485
-0.0712537
-0.0919631
-0.113223
-0.134142
-0.153996
-0.172285
-0.188719
-0.20318
-0.215659
-0.22621
-0.234916
-0.241862
-0.247123
-0.250749
-0.252793
-0.253364
-0.252487
-0.25019
-0.24649
-0.241379
-0.234816
-0.226714
-0.216938
-0.20531
-0.191648
-0.175845
-0.158003
-0.13861
-0.118691
-0.0997997
-0.0837194
-0.0718712
-0.0646976
-0.0614697
-0.0607375
-0.0610943
-0.0616869
-0.0622136
-0.0625515
-0.0626913
0.0102248
0.00928976
0.00759508
0.00470476
-4.87792e-05
-0.00733821
-0.0177847
-0.0317273
-0.0490649
-0.0692331
-0.0913168
-0.11424
-0.136965
-0.158646
-0.1787
-0.196807
-0.212856
-0.226864
-0.238919
-0.249126
-0.257584
-0.264382
-0.269585
-0.273233
-0.275365
-0.276069
-0.275356
-0.273258
-0.269794
-0.264973
-0.258774
-0.251143
-0.241969
-0.231076
-0.218224
-0.203142
-0.185621
-0.165688
-0.143869
-0.121416
-0.100318
-0.0828507
-0.0706987
-0.0641183
-0.0618346
-0.0618644
-0.0626001
-0.063308
-0.0637846
-0.0639992
0.00900002
0.00793383
0.00579851
0.00197031
-0.00436865
-0.0139318
-0.0272385
-0.0443727
-0.0648858
-0.0878654
-0.112135
-0.136497
-0.15994
-0.181758
-0.201563
-0.219226
-0.234781
-0.248345
-0.260048
-0.27001
-0.278321
-0.285054
-0.290258
-0.293959
-0.296181
-0.296994
-0.296399
-0.294424
-0.291091
-0.286412
-0.280391
-0.273004
-0.26419
-0.253829
-0.241722
-0.227578
-0.211047
-0.191821
-0.169868
-0.14579
-0.12116
-0.0985046
-0.0806034
-0.0692139
-0.064064
-0.0630806
-0.0637966
-0.0646932
-0.0653324
-0.0656467
0.00603458
0.00480564
0.00214104
-0.00275872
-0.0108173
-0.0227225
-0.0388133
-0.0588611
-0.082059
-0.107191
-0.132908
-0.157997
-0.18157
-0.203114
-0.222445
-0.239593
-0.254693
-0.267906
-0.279371
-0.289193
-0.297443
-0.304171
-0.309412
-0.313181
-0.315488
-0.316396
-0.315901
-0.31402
-0.310773
-0.306172
-0.300227
-0.292935
-0.284275
-0.274188
-0.262553
-0.249157
-0.233666
-0.215648
-0.194699
-0.17075
-0.144564
-0.118185
-0.094809
-0.0776424
-0.0681423
-0.0650478
-0.0653497
-0.0664291
-0.0672658
-0.0677216
0.00110574
-0.000315285
-0.00356804
-0.00960182
-0.0193936
-0.0335435
-0.0521541
-0.0746634
-0.0999357
-0.126526
-0.153012
-0.178262
-0.201567
-0.222623
-0.241417
-0.25809
-0.272828
-0.285797
-0.297118
-0.30687
-0.315102
-0.321849
-0.327134
-0.330964
-0.333346
-0.334335
-0.333928
-0.332136
-0.32897
-0.324439
-0.318549
-0.311303
-0.302697
-0.292714
-0.281304
-0.268351
-0.253629
-0.236756
-0.217208
-0.194483
-0.168524
-0.140408
-0.112877
-0.0899071
-0.0748631
-0.0682738
-0.0674212
-0.0685806
-0.0696606
-0.0703126
-0.00582337
-0.00745539
-0.0113143
-0.0184655
-0.0298868
-0.0460433
-0.0667737
-0.0911966
-0.117905
-0.145315
-0.172019
-0.197032
-0.219844
-0.240337
-0.258624
-0.274905
-0.289374
-0.302177
-0.313408
-0.323119
-0.331343
-0.338103
-0.343418
-0.347293
-0.349732
-0.350787
-0.350459
-0.348751
-0.345672
-0.341225
-0.335409
-0.328224
-0.319666
-0.309733
-0.298415
-0.285675
-0.271403
-0.255352
-0.237077
-0.21594
-0.191342
-0.163346
-0.133602
-0.105854
-0.0848287
-0.0734079
-0.0703205
-0.07125
-0.0726281
-0.0735231
-0.0145919
-0.0164397
-0.0208801
-0.0290602
-0.0419131
-0.059741
-0.0821197
-0.107889
-0.135443
-0.163141
-0.189664
-0.214197
-0.236422
-0.256363
-0.274208
-0.290176
-0.304444
-0.317125
-0.328285
-0.337958
-0.346162
-0.352917
-0.358241
-0.362141
-0.36462
-0.365725
-0.365464
-0.363837
-0.360847
-0.356494
-0.350776
-0.343684
-0.335209
-0.325349
-0.314102
-0.301471
-0.28743
-0.271873
-0.254518
-0.234821
-0.211997
-0.185386
-0.155385
-0.12464
-0.0981825
-0.0810651
-0.0744892
-0.0745927
-0.0762875
-0.0774613
-0.0248655
-0.026918
-0.0318786
-0.0409458
-0.0549721
-0.0740895
-0.0976345
-0.124224
-0.152129
-0.17972
-0.205801
-0.229735
-0.25136
-0.270797
-0.288269
-0.303986
-0.318091
-0.330667
-0.341756
-0.351377
-0.359545
-0.366277
-0.371593
-0.375503
-0.378007
-0.379148
-0.378944
-0.377387
-0.374481
-0.370227
-0.364617
-0.357641
-0.349287
-0.339543
-0.328404
-0.315879
-0.301983
-0.286703
-0.269926
-0.251303
-0.230138
-0.205467
-0.176688
-0.144954
-0.114487
-0.0916021
-0.0804098
-0.0788301
-0.0807424
-0.0822365
-0.0361831
-0.0384147
-0.0438092
-0.0535912
-0.0685085
-0.0885327
-0.1128
-0.139766
-0.167643
-0.194859
-0.220357
-0.243658
-0.264716
-0.28371
-0.300867
-0.316371
-0.330332
-0.342805
-0.353814
-0.363372
-0.37149
-0.378187
-0.383483
-0.387391
-0.389911
-0.391078
-0.39092
-0.389423
-0.386592
-0.382429
-0.376926
-0.370074
-0.361859
-0.352265
-0.341279
-0.328903
-0.315155
-0.300068
-0.283644
-0.265733
-0.245868
-0.223127
-0.196374
-0.165382
-0.132807
-0.104961
-0.0884884
-0.0842416
-0.0860818
-0.0879628
-0.0480169
-0.0503896
-0.0561179
-0.0664344
-0.0819669
-0.10255
-0.127165
-0.154164
-0.181751
-0.208435
-0.233298
-0.255984
-0.276529
-0.295138
-0.312024
-0.327339
-0.341164
-0.353531
-0.364453
-0.373939
-0.382001
-0.388657
-0.393928
-0.397828
-0.400357
-0.401542
-0.401421
-0.399973
-0.397208
-0.393124
-0.387719
-0.380986
-0.372911
-0.363479
-0.352675
-0.340488
-0.326929
-0.312038
-0.295869
-0.278422
-0.259474
-0.238347
-0.213815
-0.184719
-0.151941
-0.120634
-0.0989111
-0.0910922
-0.0923913
-0.0947441
-0.05983
-0.0622959
-0.0682548
-0.0789342
-0.0948346
-0.115683
-0.140353
-0.167143
-0.19428
-0.220368
-0.244601
-0.266723
-0.286817
-0.305092
-0.321741
-0.336884
-0.350578
-0.362838
-0.373671
-0.383084
-0.391089
-0.397703
-0.402947
-0.406837
-0.409372
-0.410568
-0.410476
-0.409069
-0.406356
-0.40234
-0.39702
-0.390392
-0.382446
-0.373172
-0.362553
-0.350578
-0.337245
-0.322584
-0.30666
-0.289553
-0.271235
-0.251327
-0.228814
-0.202143
-0.170697
-0.137756
-0.111537
-0.0995606
-0.0997683
-0.102633
-0.0711247
-0.0736321
-0.0797182
-0.0906078
-0.106668
-0.127551
-0.152066
-0.178494
-0.205108
-0.230596
-0.254248
-0.275871
-0.295576
-0.313565
-0.330005
-0.344992
-0.358561
-0.370719
-0.381467
-0.390811
-0.398764
-0.40534
-0.41056
-0.41444
-0.416978
-0.41818
-0.418111
-0.416735
-0.414065
-0.410103
-0.404852
-0.398311
-0.390477
-0.381343
-0.370898
-0.359132
-0.346041
-0.331639
-0.315986
-0.299185
-0.28133
-0.262305
-0.241435
-0.217221
-0.188088
-0.155282
-0.125876
-0.109658
-0.108263
-0.111572
-0.0815001
-0.0839529
-0.0900875
-0.101053
-0.117107
-0.137854
-0.162076
-0.188065
-0.214143
-0.239075
-0.262216
-0.283415
-0.302793
-0.320538
-0.336797
-0.351643
-0.3651
-0.377166
-0.38784
-0.397127
-0.405036
-0.411582
-0.416782
-0.420653
-0.423193
-0.424398
-0.424347
-0.422995
-0.420355
-0.416433
-0.411234
-0.40476
-0.397014
-0.387996
-0.377702
-0.366126
-0.353267
-0.339134
-0.323772
-0.307285
-0.28982
-0.271447
-0.251839
-0.229815
-0.203422
-0.172167
-0.141159
-0.121154
-0.117785
-0.121341
-0.0906528
-0.0929011
-0.0990181
-0.109961
-0.125878
-0.146369
-0.170217
-0.195743
-0.221319
-0.245765
-0.268479
-0.289332
-0.308443
-0.325988
-0.342094
-0.356821
-0.370183
-0.382174
-0.39279
-0.402033
-0.409912
-0.416439
-0.421627
-0.425492
-0.428035
-0.429244
-0.429203
-0.427866
-0.425245
-0.421348
-0.416181
-0.409752
-0.402068
-0.393136
-0.38296
-0.371543
-0.358888
-0.345007
-0.329939
-0.313774
-0.296676
-0.278824
-0.26017
-0.239947
-0.216291
-0.187513
-0.156461
-0.133554
-0.128018
-0.131545
-0.0983446
-0.100264
-0.106255
-0.117104
-0.132792
-0.152943
-0.176375
-0.201452
-0.226587
-0.250633
-0.273012
-0.293597
-0.312501
-0.329888
-0.345873
-0.360506
-0.373797
-0.385734
-0.396312
-0.405531
-0.413397
-0.419918
-0.425105
-0.42897
-0.431517
-0.432735
-0.432698
-0.431372
-0.428758
-0.424869
-0.419713
-0.413303
-0.40565
-0.396768
-0.386671
-0.37537
-0.362878
-0.349212
-0.334412
-0.318561
-0.30182
-0.284418
-0.266499
-0.247695
-0.226502
-0.200639
-0.170844
-0.146148
-0.138451
-0.141674
-0.10442
-0.10593
-0.11166
-0.122343
-0.137742
-0.157504
-0.180507
-0.205164
-0.229925
-0.25366
-0.275792
-0.296185
-0.31494
-0.332211
-0.348108
-0.362678
-0.375924
-0.387835
-0.3984
-0.407618
-0.41549
-0.422022
-0.427221
-0.431097
-0.433653
-0.43488
-0.434845
-0.433524
-0.430906
-0.427009
-0.421845
-0.415426
-0.407771
-0.398901
-0.388836
-0.377601
-0.365217
-0.351712
-0.337131
-0.321558
-0.305148
-0.28815
-0.270824
-0.253115
-0.233991
-0.211091
-0.183473
-0.158134
-0.148483
-0.151186
-0.10882
-0.109869
-0.1152
-0.125628
-0.140686
-0.160016
-0.182574
-0.206837
-0.231289
-0.254804
-0.276784
-0.297069
-0.315745
-0.332954
-0.348804
-0.363343
-0.376575
-0.388487
-0.399068
-0.408309
-0.416208
-0.422768
-0.427992
-0.431884
-0.434447
-0.435677
-0.435639
-0.43432
-0.431689
-0.427769
-0.422574
-0.416121
-0.40843
-0.39953
-0.389452
-0.378228
-0.36589
-0.352478
-0.338048
-0.32269
-0.306562
-0.289917
-0.273081
-0.256219
-0.238754
-0.218597
-0.193681
-0.168727
-0.157507
-0.159557
-0.111576
-0.112137
-0.116943
-0.127012
-0.141671
-0.160522
-0.182609
-0.206483
-0.230667
-0.254026
-0.27593
-0.296183
-0.314842
-0.332042
-0.34789
-0.362439
-0.375697
-0.38765
-0.398282
-0.407583
-0.415545
-0.422166
-0.427444
-0.431382
-0.433981
-0.435232
-0.435174
-0.433828
-0.431153
-0.427174
-0.421909
-0.41538
-0.407616
-0.398645
-0.388504
-0.377232
-0.364874
-0.351481
-0.337121
-0.321896
-0.305972
-0.289612
-0.273174
-0.256969
-0.240794
-0.223017
-0.20099
-0.177241
-0.164969
-0.166318
-0.112797
-0.112876
-0.117045
-0.12662
-0.140801
-0.159115
-0.180685
-0.204152
-0.228082
-0.251329
-0.273218
-0.293504
-0.31221
-0.329454
-0.345347
-0.359947
-0.373268
-0.385297
-0.396017
-0.40541
-0.413465
-0.420174
-0.425531
-0.429533
-0.43218
-0.433467
-0.433411
-0.432047
-0.429325
-0.425275
-0.41992
-0.41328
-0.405386
-0.396276
-0.385997
-0.3746
-0.362143
-0.348686
-0.334306
-0.319118
-0.303302
-0.287134
-0.270999
-0.255294
-0.240101
-0.224288
-0.205084
-0.183118
-0.170382
-0.171054
-0.112657
-0.112291
-0.115733
-0.124653
-0.13824
-0.155929
-0.176907
-0.199914
-0.223569
-0.246718
-0.268635
-0.28901
-0.307821
-0.325167
-0.341155
-0.355852
-0.369279
-0.381425
-0.392271
-0.401795
-0.409979
-0.416809
-0.422273
-0.426364
-0.429077
-0.430407
-0.430357
-0.428974
-0.426197
-0.422059
-0.416587
-0.409806
-0.401747
-0.392455
-0.38198
-0.370381
-0.357725
-0.344087
-0.329567
-0.314302
-0.298482
-0.282396
-0.266453
-0.25111
-0.236645
-0.222383
-0.20577
-0.185932
-0.173324
-0.173402
-0.111378
-0.110636
-0.113297
-0.121376
-0.134208
-0.151147
-0.171417
-0.193863
-0.217175
-0.2402
-0.262154
-0.282658
-0.301629
-0.319134
-0.335275
-0.350122
-0.363703
-0.376014
-0.387033
-0.396733
-0.405088
-0.412077
-0.417683
-0.421891
-0.424692
-0.426078
-0.426043
-0.424638
-0.4218
-0.417558
-0.411946
-0.404987
-0.396718
-0.387187
-0.376449
-0.364572
-0.351629
-0.337711
-0.32293
-0.30744
-0.291465
-0.275325
-0.25945
-0.24433
-0.230382
-0.217295
-0.202948
-0.185372
-0.173426
-0.173033
-0.109217
-0.108193
-0.110061
-0.117113
-0.128983
-0.144999
-0.1644
-0.186131
-0.208973
-0.231792
-0.253755
-0.2744
-0.293574
-0.311297
-0.327653
-0.34271
-0.356505
-0.369036
-0.38028
-0.390205
-0.39878
-0.405973
-0.41176
-0.41612
-0.419036
-0.420498
-0.420494
-0.419066
-0.416165
-0.411808
-0.406031
-0.398862
-0.390338
-0.380509
-0.369438
-0.357196
-0.343868
-0.329554
-0.314384
-0.298534
-0.282255
-0.265898
-0.249935
-0.23489
-0.221269
-0.209022
-0.196573
-0.181228
-0.17036
-0.169642
-0.10644
-0.105245
-0.106355
-0.112225
-0.122893
-0.137762
-0.15608
-0.176887
-0.199068
-0.221535
-0.243422
-0.264187
-0.283588
-0.301584
-0.318222
-0.333563
-0.34764
-0.360457
-0.371989
-0.3822
-0.391049
-0.398498
-0.404513
-0.409064
-0.41213
-0.413693
-0.41374
-0.412298
-0.409334
-0.404853
-0.39889
-0.391478
-0.382654
-0.372471
-0.360993
-0.348298
-0.334478
-0.319646
-0.303948
-0.287586
-0.270842
-0.254107
-0.237896
-0.222771
-0.209291
-0.197578
-0.186646
-0.17337
-0.163833
-0.162937
-0.103307
-0.102046
-0.102485
-0.107075
-0.116302
-0.129751
-0.146719
-0.166331
-0.187592
-0.209491
-0.231154
-0.251967
-0.271593
-0.289907
-0.306901
-0.322609
-0.337055
-0.350239
-0.362135
-0.372703
-0.381893
-0.389659
-0.395956
-0.400748
-0.404004
-0.405701
-0.405822
-0.40438
-0.401359
-0.396748
-0.390583
-0.382898
-0.373732
-0.363136
-0.351177
-0.337938
-0.323516
-0.308037
-0.291666
-0.274633
-0.257256
-0.23997
-0.223343
-0.207981
-0.194491
-0.18302
-0.17321
-0.161743
-0.153583
-0.152631
-0.100042
-0.0988079
-0.098702
-0.102004
-0.109585
-0.121316
-0.136611
-0.154699
-0.174715
-0.195753
-0.21697
-0.2377
-0.257507
-0.276164
-0.293587
-0.309759
-0.324677
-0.338331
-0.350688
-0.3617
-0.371312
-0.379467
-0.386113
-0.391202
-0.394697
-0.396568
-0.396792
-0.395372
-0.392304
-0.387564
-0.381183
-0.3732
-0.36365
-0.352584
-0.340071
-0.326194
-0.311059
-0.294803
-0.277614
-0.259748
-0.241568
-0.223559
-0.206342
-0.190579
-0.176931
-0.165467
-0.156374
-0.146375
-0.139408
-0.138451
-0.0968259
-0.0956831
-0.0951872
-0.0972894
-0.103102
-0.112824
-0.126082
-0.142256
-0.160634
-0.180446
-0.200918
-0.22136
-0.24125
-0.260247
-0.278163
-0.294902
-0.310417
-0.324666
-0.337604
-0.349172
-0.359305
-0.367939
-0.375011
-0.380466
-0.384258
-0.386351
-0.386718
-0.385348
-0.382249
-0.377383
-0.370779
-0.362474
-0.352503
-0.340914
-0.327774
-0.31317
-0.297213
-0.280055
-0.261903
-0.243051
-0.223905
-0.205005
-0.187033
-0.170704
-0.156719
-0.145115
-0.136315
-0.127371
-0.121189
-0.120152
-0.0937831
-0.0927709
-0.0920459
-0.0931248
-0.0971598
-0.104637
-0.115476
-0.129292
-0.145577
-0.16373
-0.183082
-0.20296
-0.222771
-0.242059
-0.260507
-0.277918
-0.294166
-0.309161
-0.322827
-0.335088
-0.345867
-0.355088
-0.362682
-0.368586
-0.372746
-0.37512
-0.375675
-0.374391
-0.371282
-0.366302
-0.359473
-0.35083
-0.340406
-0.328245
-0.314414
-0.298999
-0.28212
-0.263943
-0.2447
-0.22472
-0.204461
-0.184521
-0.165641
-0.148586
-0.134082
-0.12218
-0.113266
-0.104891
-0.0989004
-0.0974813
-0.09099
-0.0901273
-0.0893193
-0.0896071
-0.0919746
-0.0970655
-0.105126
-0.116112
-0.129797
-0.1458
-0.163596
-0.182565
-0.20207
-0.221542
-0.240529
-0.258699
-0.27582
-0.291727
-0.306292
-0.31941
-0.330984
-0.340928
-0.34916
-0.355612
-0.360224
-0.362948
-0.363748
-0.362596
-0.359505
-0.35443
-0.347382
-0.338391
-0.32749
-0.31472
-0.300143
-0.28385
-0.265968
-0.246676
-0.226236
-0.205016
-0.183523
-0.162418
-0.142496
-0.124563
-0.109364
-0.0969194
-0.0875526
-0.0791324
-0.0725763
-0.0700857
-0.088479
-0.0877749
-0.0870015
-0.0867427
-0.0876432
-0.090322
-0.0953155
-0.103006
-0.113558
-0.126885
-0.142651
-0.160316
-0.17923
-0.198725
-0.218207
-0.23719
-0.25531
-0.272295
-0.287945
-0.302104
-0.314647
-0.325468
-0.334477
-0.341595
-0.346759
-0.349917
-0.351029
-0.350067
-0.34703
-0.341889
-0.334637
-0.325302
-0.313914
-0.300513
-0.28516
-0.267946
-0.249008
-0.228543
-0.20684
-0.184306
-0.161499
-0.139135
-0.118057
-0.0990965
-0.0829965
-0.0697065
-0.0595739
-0.0503364
-0.042406
-0.0375544
-0.086242
-0.0857101
-0.0850586
-0.0844645
-0.0841287
-0.0844694
-0.0862146
-0.0902108
-0.0971222
-0.10725
-0.120501
-0.136454
-0.154458
-0.173768
-0.193648
-0.213454
-0.232661
-0.250871
-0.267783
-0.283173
-0.296871
-0.308742
-0.318681
-0.3266
-0.332432
-0.336121
-0.337626
-0.336918
-0.333988
-0.328822
-0.321397
-0.311738
-0.299877
-0.28585
-0.269721
-0.251584
-0.231585
-0.209939
-0.186962
-0.163097
-0.138945
-0.115262
-0.0929204
-0.0727611
-0.0555038
-0.0410232
-0.0297631
-0.0188
-0.00901264
0.000185444
-0.0842246
-0.0838947
-0.0834323
-0.082645
-0.0812583
-0.0793817
-0.0778189
-0.0778533
-0.0807157
-0.0871878
-0.0974878
-0.111341
-0.128124
-0.147019
-0.167161
-0.187743
-0.208077
-0.227614
-0.245934
-0.262724
-0.277752
-0.290844
-0.301871
-0.310735
-0.317359
-0.321688
-0.323679
-0.323304
-0.320549
-0.315413
-0.307867
-0.297931
-0.285638
-0.27103
-0.254171
-0.235163
-0.21416
-0.191396
-0.167207
-0.142064
-0.116589
-0.0915539
-0.0678283
-0.0462293
-0.0274346
-0.0112759
0.0016839
0.0154174
0.0267838
0.0429675
-0.0823102
-0.082235
-0.0820166
-0.0810857
-0.0787242
-0.0747313
-0.0699104
-0.0659038
-0.0645026
-0.0670217
-0.0740502
-0.0855022
-0.100797
-0.119061
-0.139309
-0.160578
-0.182018
-0.202922
-0.222739
-0.24105
-0.257548
-0.272007
-0.284266
-0.294207
-0.301748
-0.306827
-0.309404
-0.309451
-0.306954
-0.301921
-0.29433
-0.284196
-0.271556
-0.256459
-0.238975
-0.219214
-0.197343
-0.173606
-0.148351
-0.122054
-0.0953324
-0.0689285
-0.0436585
-0.0202639
0.000663091
0.0193504
0.0351979
0.0531699
0.0659646
0.09291
-0.0803144
-0.0805552
-0.0806094
-0.079477
-0.0760809
-0.0700152
-0.0620768
-0.0541739
-0.0485743
-0.0471046
-0.0507499
-0.0596479
-0.0732869
-0.0907546
-0.11096
-0.132801
-0.15527
-0.177512
-0.198838
-0.218719
-0.236762
-0.252682
-0.266274
-0.277398
-0.285957
-0.291887
-0.295146
-0.295711
-0.293568
-0.288728
-0.281192
-0.270973
-0.258115
-0.242675
-0.224735
-0.204415
-0.181889
-0.157407
-0.131309
-0.104048
-0.0761893
-0.0483921
-0.0213552
0.00432439
0.0282185
0.0507446
0.0715031
0.0962964
0.113718
0.157366
-0.0780387
-0.0786212
-0.0789391
-0.0774399
-0.0728104
-0.0646462
-0.05382
-0.0424052
-0.0330018
-0.0278472
-0.0282892
-0.0347007
-0.046665
-0.0632568
-0.0833051
-0.105589
-0.128967
-0.152445
-0.17521
-0.196622
-0.216201
-0.233595
-0.248556
-0.260913
-0.270552
-0.277402
-0.281421
-0.282589
-0.280899
-0.276362
-0.268999
-0.258834
-0.245924
-0.230339
-0.212171
-0.191547
-0.168644
-0.143701
-0.117029
-0.0890158
-0.0601246
-0.0308642
-0.00173902
0.0268829
0.0548278
0.0828385
0.110921
0.146173
0.176315
0.241673
-0.0756025
-0.0764092
-0.0768312
-0.0747092
-0.0686314
-0.0582759
-0.0448099
-0.0304704
-0.0179671
-0.00977601
-0.00751928
-0.0117734
-0.0222281
-0.0379766
-0.0578046
-0.0804083
-0.104539
-0.129092
-0.153142
-0.175954
-0.196965
-0.215759
-0.23204
-0.245606
-0.256325
-0.264116
-0.268936
-0.27077
-0.269618
-0.2655
-0.258441
-0.248481
-0.235693
-0.220171
-0.202018
-0.181362
-0.158367
-0.133242
-0.106241
-0.0776525
-0.0477825
-0.0169136
0.0147538
0.0472324
0.0807786
0.116589
0.154992
0.20477
0.252629
0.331844
-0.0742846
-0.0749229
-0.0749482
-0.0716337
-0.0637312
-0.0511755
-0.0353402
-0.0187151
-0.00401554
0.00633713
0.0105344
0.00786349
-0.00143804
-0.0164987
-0.0361038
-0.0589108
-0.083606
-0.109004
-0.1341
-0.15808
-0.180311
-0.200322
-0.217775
-0.232436
-0.244154
-0.252839
-0.258444
-0.260957
-0.260388
-0.256765
-0.250139
-0.240548
-0.22805
-0.212753
-0.194789
-0.17429
-0.151398
-0.126276
-0.0990982
-0.0700271
-0.0391694
-0.0065009
0.0282366
0.0657324
0.107175
0.154917
0.210066
0.28142
0.342256
0.417777
-0.0785378
-0.0777526
-0.076014
-0.0703133
-0.0597655
-0.0446592
-0.0266184
-0.00822063
0.0078241
0.0193748
0.0247428
0.0230112
0.0144047
-0.000226342
-0.019689
-0.0426371
-0.0677282
-0.0937334
-0.119595
-0.144447
-0.167608
-0.188562
-0.206937
-0.222475
-0.235008
-0.244437
-0.250712
-0.253821
-0.253779
-0.250625
-0.244413
-0.235216
-0.223106
-0.208138
-0.190427
-0.170126
-0.14737
-0.12228
-0.0949495
-0.065406
-0.0335326
0.00106617
0.0392674
0.0828138
0.134659
0.200075
0.283928
0.396301
0.48926
0.597451
-0.101909
-0.0939576
-0.0853694
-0.0745101
-0.0601816
-0.0420282
-0.0217081
-0.00176046
0.0154365
0.0277308
0.0335258
0.0321985
0.0239757
0.00966209
-0.00959237
-0.0324734
-0.0576522
-0.0838945
-0.110123
-0.135442
-0.15914
-0.180671
-0.199636
-0.215756
-0.228848
-0.238801
-0.245561
-0.249112
-0.249473
-0.246682
-0.240796
-0.231888
-0.220035
-0.205334
-0.187886
-0.167788
-0.145159
-0.12009
-0.0926123
-0.062628
-0.0298027
0.00663877
0.0482438
0.0979707
0.161
0.2469
0.368443
0.549223
0.762172
1.10321
-0.188611
-0.110724
-0.0790104
-0.0697275
-0.0565059
-0.0373455
-0.0160231
0.00449472
0.0217695
0.0337089
0.0389858
0.0371697
0.0285639
0.0139996
-0.0053818
-0.0283018
-0.0534759
-0.0797068
-0.105943
-0.131301
-0.155075
-0.176715
-0.195819
-0.212098
-0.225364
-0.235498
-0.242443
-0.24618
-0.246724
-0.244112
-0.238403
-0.229666
-0.217983
-0.203446
-0.18615
-0.16619
-0.143668
-0.118648
-0.0911051
-0.060845
-0.0273676
0.0103852
0.0544426
0.108592
0.179454
0.279452
0.428566
0.674482
1.07463
1.8248
)
;

boundaryField
{
    movingWall
    {
        type            zeroGradient;
    }
    fixedWalls
    {
        type            zeroGradient;
    }
    frontAndBack
    {
        type            empty;
    }
}


// ************************************************************************* //
