/*--------------------------------*- C++ -*----------------------------------*\
  =========                 |
  \\      /  F ield         | OpenFOAM: The Open Source CFD Toolbox
   \\    /   O peration     | Website:  https://openfoam.org
    \\  /    A nd           | Version:  7
     \\/     M anipulation  |
\*---------------------------------------------------------------------------*/
FoamFile
{
    version     2.0;
    format      ascii;
    class       surfaceScalarField;
    location    "200";
    object      phi;
}
// * * * * * * * * * * * * * * * * * * * * * * * * * * * * * * * * * * * * * //

dimensions      [0 3 -1 0 0 0 0];

internalField   nonuniform List<scalar> 
4900
(
1.68642e-06
-1.75543e-06
6.25512e-06
-4.56637e-06
1.17652e-05
-5.52096e-06
1.65513e-05
-4.79924e-06
1.97878e-05
-3.24818e-06
2.14112e-05
-1.63279e-06
2.1772e-05
-3.68756e-07
2.12447e-05
5.2035e-07
1.99661e-05
1.27214e-06
1.77634e-05
2.1964e-06
1.42364e-05
3.52093e-06
8.89196e-06
5.33859e-06
1.23272e-06
7.65385e-06
-9.20048e-06
1.04282e-05
-2.27637e-05
1.35587e-05
-3.96246e-05
1.68568e-05
-5.96926e-05
2.00643e-05
-8.25354e-05
2.28395e-05
-0.000107316
2.47774e-05
-0.000132775
2.54566e-05
-0.000157281
2.45032e-05
-0.000178938
2.16542e-05
-0.000195748
1.68086e-05
-0.000205816
1.00659e-05
-0.000207585
1.76658e-06
-0.000200071
-7.5159e-06
-0.000182983
-1.70897e-05
-0.000156799
-2.6185e-05
-0.000122773
-3.40281e-05
-8.28945e-05
-3.98802e-05
-3.97891e-05
-4.3107e-05
3.44064e-06
-4.32314e-05
4.35057e-05
-4.00668e-05
7.74854e-05
-3.39815e-05
0.00010314
-2.56565e-05
0.000119122
-1.5983e-05
0.000125224
-6.10427e-06
0.000122447
2.77625e-06
0.000112744
9.70082e-06
9.85015e-05
1.42414e-05
8.20828e-05
1.64173e-05
6.5464e-05
1.66174e-05
5.00347e-05
1.5428e-05
3.65683e-05
1.34651e-05
2.53218e-05
1.12451e-05
1.62068e-05
9.11362e-06
9.00694e-06
7.19846e-06
3.6577e-06
5.3478e-06
5.26415e-07
3.1299e-06
5.26128e-07
4.4947e-06
-6.24105e-06
1.38978e-05
-1.39845e-05
2.43609e-05
-1.60126e-05
3.29173e-05
-1.33858e-05
3.79613e-05
-8.31873e-06
3.91085e-05
-2.8026e-06
3.66405e-05
2.07971e-06
3.08538e-05
6.28918e-06
2.16233e-05
1.04857e-05
8.30162e-06
1.55018e-05
-1.01276e-05
2.19348e-05
-3.47789e-05
2.99759e-05
-6.65589e-05
3.94213e-05
-0.000105907
4.97651e-05
-0.000152582
6.02245e-05
-0.000205505
6.97708e-05
-0.000262698
7.72508e-05
-0.000321424
8.15584e-05
-0.000378457
8.18052e-05
-0.000430445
7.74391e-05
-0.000474237
6.82909e-05
-0.000507149
5.45612e-05
-0.000527119
3.67747e-05
-0.000532796
1.57397e-05
-0.000523621
-7.41208e-06
-0.000499681
-3.14596e-05
-0.000461596
-5.51778e-05
-0.000410537
-7.72466e-05
-0.000348298
-9.62708e-05
-0.000277314
-0.000110867
-0.000200647
-0.000119777
-0.000121865
-0.000122017
-4.48427e-05
-0.000117092
2.63405e-05
-0.000105169
8.7917e-05
-8.7237e-05
0.000137019
-6.50886e-05
0.000171664
-4.07531e-05
0.000190995
-1.65587e-05
0.000195512
5.18049e-06
0.000187228
2.25224e-05
0.000169245
3.4397e-05
0.00014515
4.07092e-05
0.000118376
4.21987e-05
9.17327e-05
4.01053e-05
6.71377e-05
3.58367e-05
4.56251e-05
3.06227e-05
2.76211e-05
2.51989e-05
1.34344e-05
1.9531e-05
3.79234e-06
1.27687e-05
4.31811e-06
6.00676e-06
-1.22485e-05
1.73588e-05
-2.53448e-05
2.87787e-05
-2.74525e-05
3.67075e-05
-2.13383e-05
3.92894e-05
-1.09239e-05
3.59374e-05
5.28027e-07
2.65796e-05
1.14181e-05
1.09878e-05
2.18631e-05
-1.16312e-05
3.30883e-05
-4.25783e-05
4.64343e-05
-8.32218e-05
6.25657e-05
-0.000134477
8.12204e-05
-0.000196381
0.000101316
-0.000267781
0.000121157
-0.000346271
0.000138708
-0.00042844
0.000151933
-0.000510329
0.000159135
-0.000587966
0.000159191
-0.000657807
0.000151642
-0.000717009
0.000136637
-0.000763516
0.000114795
-0.000796009
8.70506e-05
-0.000813757
5.45195e-05
-0.000816438
1.84178e-05
-0.000803943
-1.99096e-05
-0.000776286
-5.91201e-05
-0.000733755
-9.77114e-05
-0.000677051
-0.000133953
-0.000607367
-0.000165957
-0.000526498
-0.000191739
-0.000436916
-0.000209362
-0.000341774
-0.000217161
-0.000244828
-0.00021404
-0.000150216
-0.000199784
-6.21714e-05
-0.000175285
1.52822e-05
-0.000142546
7.90836e-05
-0.000104558
0.000127397
-6.48753e-05
0.00015923
-2.66566e-05
0.000174674
7.07555e-06
0.000175187
3.38804e-05
0.000163519
5.23747e-05
0.000143193
6.25213e-05
0.000117894
6.5401e-05
9.09086e-05
6.28195e-05
6.47497e-05
5.67785e-05
4.11199e-05
4.88256e-05
2.1258e-05
3.93892e-05
6.63001e-06
2.73939e-05
1.09478e-05
6.51138e-06
-1.87563e-05
1.75502e-05
-3.63915e-05
2.67895e-05
-3.67079e-05
3.04204e-05
-2.49892e-05
2.66435e-05
-7.16819e-06
1.47591e-05
1.23922e-05
-5.78972e-06
3.19487e-05
-3.60478e-05
5.21053e-05
-7.75589e-05
7.45858e-05
-0.000131796
0.00010066
-0.000199453
0.000130213
-0.000279884
0.000161643
-0.000370877
0.000192303
-0.000468861
0.000219135
-0.000569459
0.000239301
-0.000668192
0.000250662
-0.000761091
0.000252029
-0.000845054
0.00024315
-0.000917929
0.000224514
-0.000978381
0.000197086
-0.00102565
0.000162065
-0.00105932
0.000120711
-0.00107908
7.42746e-05
-0.00108464
2.39807e-05
-0.00107564
-2.89106e-05
-0.00105177
-8.29991e-05
-0.00101284
-0.000136641
-0.000958895
-0.000187899
-0.000890297
-0.000234556
-0.000807912
-0.000274126
-0.000713296
-0.00030398
-0.000608864
-0.000321595
-0.000497971
-0.000324935
-0.000384844
-0.000312914
-0.000274304
-0.000285827
-0.000171239
-0.000245613
-8.00198e-05
-0.000195781
-4.01252e-06
-0.000140886
5.51138e-05
-8.57864e-05
9.7033e-05
-3.48472e-05
0.000122009
8.9008e-06
0.000131278
4.31025e-05
0.000127297
6.64992e-05
0.000113335
7.93601e-05
9.29663e-05
8.31853e-05
6.95648e-05
8.0177e-05
4.59754e-05
7.24118e-05
2.45832e-05
6.07785e-05
7.91571e-06
4.40583e-05
1.88631e-05
6.17409e-06
-2.49331e-05
1.47406e-05
-4.49666e-05
1.88447e-05
-4.08258e-05
1.48413e-05
-2.10033e-05
1.18896e-06
6.46534e-06
-2.30157e-05
3.65796e-05
-5.89779e-05
6.7896e-05
-0.00010844
0.000101555
-0.000173005
0.000139141
-0.000253171
0.000180817
-0.000347653
0.000224688
-0.000453321
0.000267305
-0.000565697
0.000304674
-0.000679781
0.000333215
-0.000790888
0.000350403
-0.000895234
0.000355005
-0.000990164
0.000346956
-0.00107405
0.000327035
-0.00114604
0.000296497
-0.00120573
0.000256771
-0.00125295
0.000209283
-0.00128761
0.000155372
-0.00130962
9.62815e-05
-0.00131884
3.31959e-05
-0.001315
-3.2746e-05
-0.00129776
-0.000100249
-0.0012666
-0.000167797
-0.00122095
-0.000233557
-0.00116021
-0.000295293
-0.00108405
-0.000350294
-0.000992606
-0.000395421
-0.000886898
-0.000427303
-0.000769113
-0.000442722
-0.000642846
-0.000439182
-0.000513088
-0.000415586
-0.000385839
-0.000372864
-0.000267331
-0.00031429
-0.000162961
-0.000245258
-7.63696e-05
-0.00017238
-9.10709e-06
-0.000102113
3.93038e-05
-3.95135e-05
7.01293e-05
1.22736e-05
8.4963e-05
5.16623e-05
8.62988e-05
7.80212e-05
7.73222e-05
9.2159e-05
6.15351e-05
9.59611e-05
4.24053e-05
9.15388e-05
2.32459e-05
7.99345e-05
7.55228e-06
5.97496e-05
2.64151e-05
4.81788e-06
-2.97525e-05
8.58286e-06
-4.87418e-05
4.68794e-06
-3.69443e-05
-9.89263e-06
-6.43858e-06
-3.65089e-05
3.30662e-05
-7.63424e-05
7.63997e-05
-0.000131125
0.000122667
-0.000202574
0.000172994
-0.000291158
0.000227717
-0.000395229
0.000284881
-0.000511007
0.000340461
-0.000633332
0.000389625
-0.000756705
0.000428043
-0.000876233
0.000452739
-0.000988177
0.000462344
-0.00109008
0.000456904
-0.00118057
0.000437441
-0.00125905
0.000405513
-0.00132542
0.00036287
-0.0013799
0.000311245
-0.00142286
0.00025224
-0.00145477
0.000187277
-0.00147608
0.000117588
-0.00148713
4.42443e-05
-0.00148803
-3.18414e-05
-0.00147857
-0.000109717
-0.00145811
-0.000188259
-0.0014256
-0.000266068
-0.00137962
-0.00034127
-0.00131857
-0.000411348
-0.00124092
-0.00047307
-0.00114569
-0.000522537
-0.00103295
-0.000555459
-0.000904446
-0.000567692
-0.000763988
-0.000556045
-0.000617594
-0.00051926
-0.000472986
-0.000458899
-0.000338446
-0.0003798
-0.000221147
-0.000289681
-0.000125567
-0.000197695
-5.28195e-05
-0.000112264
-1.35516e-06
-3.9194e-05
3.14381e-05
1.88657e-05
4.81275e-05
6.13286e-05
5.16573e-05
8.86262e-05
4.54267e-05
0.000102189
3.31323e-05
0.00010383
1.86374e-05
9.44269e-05
6.03765e-06
7.23465e-05
3.24524e-05
2.13093e-06
-3.18884e-05
-1.3711e-06
-4.52511e-05
-1.58537e-05
-2.24745e-05
-4.34797e-05
2.11743e-05
-8.54392e-05
7.5014e-05
-0.000143174
0.000134124
-0.000218349
0.000197834
-0.000311546
0.000266183
-0.000421084
0.00033725
-0.000542875
0.000406667
-0.000671268
0.000468849
-0.000800289
0.000518642
-0.000924699
0.00055245
-0.00104057
0.000568601
-0.00114535
0.000567129
-0.00123771
0.000549262
-0.00131719
0.000516913
-0.00138396
0.000472278
-0.00143866
0.000417574
-0.00148228
0.00035486
-0.00151597
0.000285928
-0.00154093
0.000212237
-0.00155825
0.000134904
-0.00156876
5.47543e-05
-0.00157297
-2.76377e-05
-0.00157088
-0.000111802
-0.00156199
-0.000197154
-0.00154512
-0.000282946
-0.00151842
-0.000367967
-0.00147944
-0.000450327
-0.00142528
-0.000527238
-0.00135292
-0.00059489
-0.0012599
-0.000648485
-0.00114502
-0.000682571
-0.00100931
-0.000691753
-0.000856772
-0.000671802
-0.000694645
-0.000621027
-0.000532874
-0.000541572
-0.000382476
-0.00044008
-0.000253051
-0.000327121
-0.000150291
-0.000215027
-7.48669e-05
-0.00011462
-2.36012e-05
-3.2403e-05
7.82985e-06
2.98944e-05
2.33123e-05
7.31406e-05
2.66281e-05
9.887e-05
2.17292e-05
0.000108727
1.27866e-05
0.000103366
4.13052e-06
8.10005e-05
3.65826e-05
-2.128e-06
-2.9764e-05
-1.52563e-05
-3.21348e-05
-4.23742e-05
4.63172e-06
-8.47389e-05
6.35287e-05
-0.00014336
0.000133626
-0.000219605
0.000210362
-0.000314162
0.000292384
-0.000425599
0.000377615
-0.000549873
0.000461519
-0.000681069
0.000537859
-0.000812764
0.000600541
-0.000939237
0.000645112
-0.00105614
0.000669353
-0.00116066
0.000673113
-0.0012513
0.000657764
-0.00132764
0.000625609
-0.00139014
0.000579403
-0.00143986
0.000521997
-0.00147836
0.00045607
-0.00150744
0.000383941
-0.00152897
0.000307451
-0.00154466
0.000227929
-0.00155599
0.000146229
-0.00156406
6.28309e-05
-0.00156963
-2.20715e-05
-0.00157297
-0.000108471
-0.00157382
-0.000196306
-0.00157129
-0.000285477
-0.00156371
-0.00037554
-0.00154856
-0.000465487
-0.00152235
-0.00055345
-0.00148083
-0.000636405
-0.00141938
-0.000709935
-0.00133375
-0.000768202
-0.0012212
-0.000804309
-0.00108179
-0.000811209
-0.000919618
-0.000783202
-0.000743332
-0.000717859
-0.000565534
-0.00061788
-0.000400563
-0.000492092
-0.000260933
-0.000354658
-0.00015366
-0.000221896
-7.86537e-05
-0.000107411
-3.0611e-05
-1.81511e-05
-3.11296e-06
4.56397e-05
9.2375e-06
8.65166e-05
1.12636e-05
0.000106698
7.55316e-06
0.000107074
2.52876e-06
8.60221e-05
3.9111e-05
-8.01065e-06
-2.17589e-05
-3.25967e-05
-7.55979e-06
-7.36453e-05
4.56706e-05
-0.000131372
0.000121247
-0.000206572
0.00020882
-0.000299893
0.000303678
-0.000410302
0.000402788
-0.000534134
0.000501443
-0.000665499
0.00059288
-0.000797626
0.000669982
-0.000924246
0.000727158
-0.00104045
0.000761316
-0.00114297
0.00077187
-0.00123006
0.000760205
-0.00130131
0.000729005
-0.00135736
0.000681658
-0.00139972
0.000621766
-0.00143048
0.000552755
-0.001452
0.000477584
-0.00146663
0.000398566
-0.0014765
0.000317328
-0.00148344
0.000234865
-0.00148888
0.000151661
-0.00149387
6.78253e-05
-0.00149917
-1.67752e-05
-0.00150519
-0.000102453
-0.001512
-0.000189496
-0.00151923
-0.000278248
-0.00152589
-0.00036888
-0.00153014
-0.00046124
-0.00152902
-0.000554573
-0.00151828
-0.000647147
-0.00149242
-0.000735796
-0.00144511
-0.00081551
-0.00137015
-0.000879272
-0.00126295
-0.000918413
-0.00112239
-0.000923755
-0.000952613
-0.000887642
-0.000763873
-0.00080662
-0.000571873
-0.000684094
-0.00039476
-0.000531772
-0.000248174
-0.000368483
-0.000140126
-0.000215461
-6.90278e-05
-8.9252e-05
-2.68579e-05
3.46704e-06
-4.97039e-06
6.46263e-05
3.46576e-06
9.82589e-05
4.08387e-06
0.000106453
1.6594e-06
8.84448e-05
4.07701e-05
-1.52244e-05
-6.53807e-06
-5.23752e-05
2.95807e-05
-0.000107578
0.000100865
-0.000180112
0.000193775
-0.000270261
0.000298964
-0.000377361
0.000410773
-0.00049839
0.000523814
-0.000627829
0.000630878
-0.000758772
0.00072382
-0.000884439
0.000795647
-0.000999278
0.000841995
-0.00109945
0.000861482
-0.00118285
0.000855269
-0.00124897
0.000826322
-0.00129864
0.000778678
-0.00133377
0.000716782
-0.00135693
0.000644925
-0.00137098
0.000566808
-0.00137869
0.000485287
-0.00138244
0.000402315
-0.00138415
0.000319036
-0.00138525
0.000235966
-0.00138678
0.000153186
-0.00138946
7.05034e-05
-0.00139381
-1.24238e-05
-0.00140023
-9.60311e-05
-0.00140901
-0.000180725
-0.00142027
-0.000266987
-0.00143386
-0.00035529
-0.00144906
-0.000446044
-0.00146421
-0.000539421
-0.00147631
-0.000635046
-0.00148062
-0.000731486
-0.00147055
-0.000825586
-0.00143804
-0.000911782
-0.00137475
-0.000981707
-0.00127399
-0.00102451
-0.00113331
-0.00102832
-0.000956929
-0.000983001
-0.000757102
-0.000883921
-0.000553171
-0.000735704
-0.000367491
-0.000554164
-0.000218627
-0.000364326
-0.000114603
-0.000193277
-5.11108e-05
-6.00273e-05
-1.69512e-05
3.04642e-05
-1.64914e-06
8.29541e-05
2.58174e-06
0.00010222
1.60519e-06
8.94186e-05
4.2375e-05
-2.32563e-05
1.67136e-05
-7.30462e-05
7.93632e-05
-0.000141544
0.000169358
-0.000227169
0.000279394
-0.000329294
0.000401085
-0.000445652
0.000527128
-0.000571449
0.000649607
-0.000699982
0.000759409
-0.000824122
0.000847958
-0.000937663
0.000909186
-0.0010361
0.000940425
-0.00111683
0.000942218
-0.00117915
0.000917585
-0.00122397
0.000871135
-0.0012535
0.000808206
-0.00127079
0.000734069
-0.00127916
0.000653302
-0.00128176
0.000569402
-0.00128117
0.000484697
-0.00127933
0.000400473
-0.00127754
0.000317241
-0.00127659
0.000235014
-0.00127694
0.000153537
-0.00127887
7.24354e-05
-0.0012826
-8.69644e-06
-0.00128837
-9.02614e-05
-0.0012965
-0.000172593
-0.00130741
-0.000256078
-0.00132153
-0.000341179
-0.00133911
-0.00042846
-0.00135997
-0.000518563
-0.00138296
-0.000612061
-0.00140534
-0.000709102
-0.00142218
-0.000808748
-0.00142594
-0.00090802
-0.00140684
-0.00100081
-0.00135419
-0.00107716
-0.00125903
-0.00112349
-0.00111751
-0.00112452
-0.000934286
-0.00106715
-0.000724254
-0.000945737
-0.00051115
-0.00076727
-0.00032179
-0.000553686
-0.000176844
-0.000338225
-8.25185e-05
-0.000154354
-3.02416e-05
-2.18149e-05
-5.76124e-06
5.84716e-05
2.32248e-06
9.41331e-05
2.1364e-06
8.96031e-05
4.45111e-05
-3.13482e-05
4.80597e-05
-9.2789e-05
0.000140798
-0.000172805
0.00024937
-0.000268831
0.000375417
-0.000379088
0.000511339
-0.000499761
0.000647799
-0.000624778
0.000774621
-0.000746964
0.000881593
-0.000859565
0.000960556
-0.000957337
0.00100696
-0.00103705
0.00102014
-0.00109759
0.00100276
-0.00113977
0.000959765
-0.001166
0.000897359
-0.00117969
0.000821893
-0.00118461
0.000738987
-0.00118426
0.000652949
-0.00118144
0.000566589
-0.00117813
0.000481384
-0.00117549
0.000397827
-0.00117406
0.000315817
-0.00117403
0.00023498
-0.00117536
0.000154865
-0.00117798
7.50525e-05
-0.00118186
-4.81745e-06
-0.00118708
-8.5041e-05
-0.00119387
-0.0001658
-0.00120264
-0.000247307
-0.00121399
-0.000329839
-0.00122864
-0.000413811
-0.00124734
-0.000499857
-0.00127054
-0.000588859
-0.0012978
-0.000681851
-0.0013269
-0.000779641
-0.00135295
-0.00088197
-0.0013676
-0.000986164
-0.00135925
-0.00108551
-0.00131471
-0.00116802
-0.0012226
-0.00121663
-0.00107792
-0.00121183
-0.00088646
-0.00113719
-0.0006669
-0.00098683
-0.000448315
-0.000772272
-0.000261872
-0.000524668
-0.000128489
-0.000287738
-4.97956e-05
-0.00010051
-1.1698e-05
2.03718e-05
1.94655e-06
8.0487e-05
2.81734e-06
8.87295e-05
4.73282e-05
-3.86285e-05
8.66851e-05
-0.000109887
0.000212053
-0.000198904
0.000338383
-0.000302021
0.000478532
-0.000416259
0.000625575
-0.000536567
0.000768106
-0.000656179
0.000894231
-0.00076804
0.000993453
-0.000866196
0.00105871
-0.000946637
0.0010874
-0.00100761
0.00108111
-0.00104959
0.00104473
-0.00107493
0.000985105
-0.00108727
0.0009097
-0.00109075
0.00082537
-0.00108924
0.000737469
-0.00108579
0.000649498
-0.00108244
0.000563244
-0.00108029
0.000479235
-0.00107972
0.000397251
-0.00108067
0.000316763
-0.00108289
0.0002372
-0.0010861
0.000158081
-0.00109009
7.90403e-05
-0.00109473
-1.81565e-07
-0.00109999
-7.97766e-05
-0.00110599
-0.0001598
-0.00111298
-0.000240325
-0.00112137
-0.000321442
-0.00113186
-0.000403326
-0.00114538
-0.000486334
-0.0011631
-0.00057114
-0.0011861
-0.000658855
-0.00121472
-0.000751016
-0.00124749
-0.0008492
-0.00127968
-0.000953981
-0.00130213
-0.00106306
-0.00130129
-0.00116887
-0.00126124
-0.00125668
-0.00116821
-0.00130485
-0.0010167
-0.00128871
-0.000814965
-0.00118856
-0.000587107
-0.00100013
-0.000368527
-0.000743248
-0.000193738
-0.000462528
-8.04927e-05
-0.000213756
-2.24024e-05
-3.772e-05
-2.05983e-08
5.81021e-05
3.1807e-06
8.5527e-05
5.05086e-05
-4.43419e-05
0.000131026
-0.000122941
0.000290649
-0.000217977
0.000433418
-0.000324648
0.000585201
-0.00043891
0.000739835
-0.0005549
0.000884095
-0.0006657
0.00100503
-0.000764822
0.00109257
-0.000847402
0.00114129
-0.000910834
0.00115083
-0.000954934
0.00112521
-0.000981708
0.00107151
-0.000994776
0.000998172
-0.000998511
0.000913434
-0.000997131
0.000823989
-0.000994001
0.000734339
-0.000991325
0.000646821
-0.000990197
0.000562115
-0.000990889
0.000479927
-0.000993202
0.000399564
-0.000996751
0.000320311
-0.00100115
0.000241598
-0.0010061
0.000163027
-0.00101139
8.43392e-05
-0.00101695
5.36994e-06
-0.00102272
-7.40047e-05
-0.00102874
-0.000153779
-0.00103509
-0.000233973
-0.00104195
-0.00031458
-0.00104968
-0.000395603
-0.00105889
-0.000477117
-0.00107063
-0.0005594
-0.00108636
-0.000643131
-0.00110774
-0.00072963
-0.00113598
-0.000820967
-0.00117036
-0.000919599
-0.00120636
-0.00102706
-0.00123387
-0.00114136
-0.00123703
-0.00125352
-0.00119696
-0.00134492
-0.00109786
-0.00138782
-0.00093494
-0.00135148
-0.000721101
-0.00121397
-0.000487976
-0.000976374
-0.000277738
-0.000672766
-0.000125368
-0.000366128
-4.00546e-05
-0.000123034
-4.69165e-06
2.27385e-05
2.91277e-06
7.792e-05
5.34212e-05
-4.79394e-05
0.000178964
-0.00013101
0.000373718
-0.000228917
0.000531324
-0.00033573
0.000692013
-0.000446591
0.000850695
-0.000555267
0.00099277
-0.000655126
0.00110489
-0.000740548
0.00117799
-0.000807927
0.00120867
-0.000856125
0.00119902
-0.000886438
0.00115553
-0.000902138
0.00108721
-0.00090762
0.00100365
-0.000907379
0.000913193
-0.000905137
0.000821746
-0.000903366
0.000732568
-0.000903281
0.000646735
-0.000905136
0.000563971
-0.000908645
0.000483435
-0.00091333
0.000404248
-0.000918743
0.000325724
-0.000924562
0.000247418
-0.0009306
0.000169065
-0.000936772
9.05114e-05
-0.000943057
1.16553e-05
-0.000949459
-6.76027e-05
-0.000955981
-0.000147257
-0.000962619
-0.000227335
-0.000969374
-0.000307825
-0.000976296
-0.000388681
-0.00098358
-0.000469832
-0.000991729
-0.000551251
-0.00100175
-0.000633108
-0.00101532
-0.000716059
-0.00103467
-0.000801622
-0.0010618
-0.000892465
-0.00109679
-0.000992067
-0.00113514
-0.00110301
-0.00116534
-0.00122332
-0.00116868
-0.00134159
-0.00112314
-0.00143336
-0.00101174
-0.00146288
-0.00083269
-0.00139302
-0.000606551
-0.00120251
-0.000374662
-0.000904656
-0.000184702
-0.000556087
-6.6009e-05
-0.000241728
-1.26008e-05
-3.06726e-05
1.90768e-06
6.3411e-05
5.53286e-05
-4.9114e-05
0.000228078
-0.000133651
0.000458254
-0.000231372
0.000629044
-0.000335299
0.00079594
-0.00044005
0.000955446
-0.000539415
0.00109213
-0.00062736
0.00119283
-0.000699314
0.00124995
-0.000752977
0.00126233
-0.000788587
0.00123463
-0.000808673
0.00117561
-0.00081733
0.00109586
-0.000819165
0.00100549
-0.000818256
0.000912284
-0.000817462
0.000820952
-0.000818259
0.000733365
-0.000821001
0.000649477
-0.000825386
0.000568355
-0.000830874
0.000488925
-0.000836972
0.000410346
-0.00084334
0.000332094
-0.00084981
0.000253888
-0.000856335
0.000175591
-0.00086294
9.71174e-05
-0.000869676
1.83917e-05
-0.000876587
-6.06905e-05
-0.000883687
-0.000140156
-0.000890958
-0.000220063
-0.000898335
-0.000300447
-0.000905717
-0.000381298
-0.000913011
-0.000462538
-0.000920232
-0.000544029
-0.00092771
-0.00062563
-0.00093638
-0.000707388
-0.000948088
-0.000789913
-0.000965589
-0.000874964
-0.000991717
-0.000965939
-0.00102717
-0.00106755
-0.00106705
-0.00118345
-0.00109764
-0.001311
-0.00109661
-0.00143438
-0.00103896
-0.00152054
-0.000908374
-0.0015236
-0.000709619
-0.00140127
-0.000474732
-0.00113954
-0.000255801
-0.000775018
-0.000100995
-0.000396535
-2.38903e-05
-0.000107776
1.74133e-07
3.93442e-05
5.55026e-05
-4.78041e-05
0.000275882
-0.000130879
0.00054133
-0.000225642
0.000723807
-0.000324182
0.000894481
-0.000420874
0.00105214
-0.000509836
0.0011811
-0.000585834
0.00126883
-0.000645403
0.00130952
-0.000687475
0.0013044
-0.000713444
0.0012606
-0.00072669
0.00118886
-0.000731632
0.00110081
-0.000732598
0.00100645
-0.000732899
0.000912585
-0.000734425
0.000822479
-0.000737786
0.000736726
-0.000742758
0.000654451
-0.000748787
0.000574385
-0.00075533
0.000495469
-0.000762026
0.000417042
-0.000768705
0.000338774
-0.000775346
0.000260531
-0.00078201
0.000182256
-0.000788787
0.000103896
-0.000795765
2.53714e-05
-0.000803014
-5.34405e-05
-0.00081056
-0.000132608
-0.000818404
-0.000212218
-0.000826492
-0.000292358
-0.000834706
-0.000373083
-0.000842857
-0.000454385
-0.000850722
-0.000536163
-0.000858143
-0.000618209
-0.000865271
-0.000700259
-0.000872967
-0.000782217
-0.000883261
-0.000864669
-0.000899476
-0.000949723
-0.000925247
-0.00104178
-0.000961618
-0.00114708
-0.00100244
-0.00127017
-0.00103058
-0.00140624
-0.0010193
-0.00153182
-0.00094154
-0.00160136
-0.000785172
-0.00155764
-0.000566604
-0.00135811
-0.000332988
-0.00100863
-0.000144694
-0.000584828
-3.8914e-05
-0.000213558
-2.4215e-06
2.852e-06
5.30811e-05
-4.41481e-05
0.000320031
-0.000123074
0.000620257
-0.000212508
0.000813242
-0.000303734
0.000985708
-0.000391119
0.00113952
-0.000469324
0.0012593
-0.000534008
0.00133352
-0.000582769
0.00135828
-0.000615587
0.00133722
-0.000634696
0.00127971
-0.000643902
0.00119806
-0.000647503
0.00110441
-0.00064921
0.00100816
-0.000651442
0.000914818
-0.000655229
0.000826267
-0.000660569
0.000742067
-0.000666957
0.00066084
-0.000673821
0.00058125
-0.000680755
0.000502405
-0.000687574
0.000423862
-0.00069426
0.000345462
-0.000700893
0.000267166
-0.000707586
0.000188951
-0.000714452
0.000110765
-0.000721584
3.25057e-05
-0.000729055
-4.59677e-05
-0.000736898
-0.000124763
-0.000745132
-0.000203982
-0.000753735
-0.000283753
-0.00076263
-0.000364186
-0.000771664
-0.00044535
-0.000780583
-0.000527243
-0.000789052
-0.000609739
-0.000796758
-0.000692552
-0.000803696
-0.000775278
-0.000810692
-0.000857673
-0.000820049
-0.000940365
-0.000835771
-0.00102606
-0.000862243
-0.00112061
-0.000900267
-0.00123215
-0.000941084
-0.00136542
-0.000962492
-0.00151041
-0.000933005
-0.00163085
-0.000826251
-0.00166439
-0.000640041
-0.00154432
-0.000408559
-0.00124012
-0.000195107
-0.000798281
-5.82743e-05
-0.00035039
-5.93862e-06
-4.94847e-05
4.71424e-05
-3.84348e-05
0.000358466
-0.000110863
0.000692687
-0.000193043
0.000895424
-0.000275579
0.00106824
-0.000352996
0.00121694
-0.000420626
0.00132693
-0.000475025
0.00138792
-0.000514727
0.00139798
-0.000540509
0.001363
-0.000555089
0.00129429
-0.000562302
0.00120528
-0.000566006
0.00110811
-0.000569136
0.00101129
-0.000573283
0.000918966
-0.000578832
0.000831818
-0.000585443
0.000748679
-0.000592554
0.000667953
-0.000599712
0.00058841
-0.000606687
0.000509382
-0.000613445
0.000430623
-0.000620071
0.00035209
-0.00062669
0.000273787
-0.000633428
0.000195693
-0.000640394
0.000117733
-0.000647667
3.97826e-05
-0.000655315
-3.83166e-05
-0.000663368
-0.000116708
-0.000671852
-0.000195496
-0.000680769
-0.000274833
-0.000690088
-0.000354865
-0.000699719
-0.000435717
-0.000709482
-0.000517477
-0.000719074
-0.000600145
-0.000728063
-0.000683561
-0.000735999
-0.00076734
-0.000742762
-0.000850909
-0.000749237
-0.000933888
-0.000758182
-0.00101711
-0.000774453
-0.00110434
-0.000803
-0.0012036
-0.000843277
-0.00132514
-0.000881806
-0.00147188
-0.000889603
-0.00162305
-0.000831695
-0.0017223
-0.000688038
-0.00168798
-0.00047459
-0.00145356
-0.000248293
-0.00102458
-8.20792e-05
-0.000516605
-1.0363e-05
-0.0001212
3.67795e-05
-3.1045e-05
0.000389513
-9.50077e-05
0.000756653
-0.00016845
0.000968868
-0.000241394
0.00114119
-0.000308627
0.00128418
-0.000366201
0.00138451
-0.00041151
0.00143323
-0.000443838
0.00143031
-0.000464475
0.00138364
-0.000476287
0.00130611
-0.000482832
0.00121182
-0.000487337
0.00111262
-0.000491971
0.00101593
-0.000497656
0.000924652
-0.00050437
0.000838534
-0.000511653
0.000755964
-0.000519024
0.000675326
-0.000526191
0.000595579
-0.000533077
0.000516271
-0.000539752
0.000437301
-0.000546348
0.000358689
-0.000553002
0.000280444
-0.000559829
0.000202524
-0.000566922
0.00012483
-0.000574349
4.72139e-05
-0.000582167
-3.0494e-05
-0.000590401
-0.00010847
-0.000599076
-0.000186817
-0.000608204
-0.000265702
-0.000617778
-0.000345288
-0.000627758
-0.000425735
-0.000638044
-0.000507189
-0.000648436
-0.000589751
-0.000658578
-0.000673417
-0.000667948
-0.000757968
-0.000675977
-0.000842879
-0.000682492
-0.000927372
-0.000688613
-0.00101099
-0.000697836
-0.00109511
-0.000716052
-0.00118538
-0.000748212
-0.00129298
-0.000790407
-0.00142969
-0.000821623
-0.00159184
-0.000805377
-0.00173854
-0.000707791
-0.00178556
-0.000524707
-0.00163665
-0.000299185
-0.0012501
-0.000109339
-0.000706449
-1.56986e-05
-0.00021484
2.10811e-05
-2.24078e-05
0.000411923
-7.6321e-05
0.000810569
-0.000139928
0.00103248
-0.00020276
0.00120403
-0.000259895
0.00134131
-0.0003081
0.00143272
-0.000345499
0.00147063
-0.00037192
0.00145673
-0.000388892
0.00140062
-0.000399146
0.00131636
-0.000405755
0.00121843
-0.000411261
0.00111813
-0.000417159
0.00102183
-0.000423899
0.000931394
-0.000431258
0.000845895
-0.000438794
0.000763504
-0.000446162
0.000682697
-0.00045322
0.00060264
-0.000459998
0.000523053
-0.000466619
0.000443926
-0.000473228
0.000365302
-0.000479951
0.000287172
-0.000486889
0.000209466
-0.00049412
0.000132065
-0.000501705
5.48033e-05
-0.000509696
-2.24978e-05
-0.000518111
-0.000100051
-0.000526971
-0.000177952
-0.00053629
-0.00025638
-0.000546066
-0.000335509
-0.000556284
-0.000415514
-0.000566895
-0.000496574
-0.000577788
-0.000578856
-0.000588733
-0.00066247
-0.000599313
-0.000747386
-0.000608909
-0.000833282
-0.000616855
-0.000919424
-0.000623042
-0.0010048
-0.000629102
-0.00108905
-0.000639666
-0.00117482
-0.000661676
-0.00127097
-0.000698662
-0.0013927
-0.000740048
-0.00155045
-0.000754485
-0.00172411
-0.000700495
-0.00183955
-0.000555196
-0.00178195
-0.000342946
-0.00146235
-0.000138156
-0.000911238
-2.1828e-05
-0.000331167
-7.46564e-07
-1.29631e-05
0.000424888
-5.55988e-05
0.000853208
-0.000108594
0.00108548
-0.000161072
0.00125651
-0.000208373
0.00138862
-0.00024793
0.00147228
-0.000278469
0.00150117
-0.00030016
0.00147843
-0.000314534
0.00141499
-0.000323974
0.00132581
-0.000330962
0.00122542
-0.000337379
0.00112455
-0.000344185
0.00102864
-0.000351535
0.000938747
-0.000359147
0.000853511
-0.000366674
0.000771034
-0.000373907
0.000689933
-0.000380816
0.000609553
-0.000387496
0.000529737
-0.000394087
0.000450522
-0.000400726
0.000371945
-0.000407523
0.000293973
-0.000414563
0.000216512
-0.00042192
0.000139428
-0.000429651
6.25407e-05
-0.000437812
-1.43314e-05
-0.000446414
-9.14424e-05
-0.000455478
-0.000168884
-0.000465008
-0.000246845
-0.000475005
-0.000325508
-0.000485458
-0.000405057
-0.000496342
-0.000485687
-0.000507598
-0.000567598
-0.00051909
-0.000650975
-0.000530545
-0.000735928
-0.000541469
-0.000822356
-0.000551132
-0.00090976
-0.000558821
-0.000997108
-0.000564694
-0.00108318
-0.000571331
-0.00116818
-0.000584935
-0.00125737
-0.000612908
-0.00136473
-0.000654344
-0.00150901
-0.000687521
-0.00169093
-0.000670334
-0.00185674
-0.000565237
-0.00188704
-0.000376008
-0.00165158
-0.000166073
-0.00112117
-2.89237e-05
-0.000468314
-2.96699e-05
-3.12703e-06
0.000428018
-3.35974e-05
0.000883683
-7.54399e-05
0.00112732
-0.000117503
0.00129857
-0.000155311
0.00142643
-0.000186881
0.00150385
-0.000211414
0.0015257
-0.000229248
0.00149626
-0.000241727
0.00142747
-0.000250752
0.00133483
-0.000258173
0.00123285
-0.00026528
0.00113166
-0.000272636
0.001036
-0.000280238
0.000946352
-0.000287836
0.000861112
-0.000295195
0.000778397
-0.000302225
0.000696967
-0.000308971
0.000616303
-0.000315554
0.000536324
-0.000322112
0.000457085
-0.000328766
0.000378605
-0.000335614
0.000300826
-0.00034273
0.000223635
-0.000350184
0.000146888
-0.000358041
7.04046e-05
-0.000366358
-6.00682e-06
-0.000375153
-8.26401e-05
-0.00038444
-0.000159591
-0.000394218
-0.000237062
-0.000404482
-0.00031524
-0.000415218
-0.000394316
-0.00042641
-0.000474491
-0.000438021
-0.000555983
-0.000449974
-0.00063902
-0.000462097
-0.000723802
-0.000474049
-0.000810402
-0.000485229
-0.000898577
-0.000494803
-0.000987532
-0.000502121
-0.00107586
-0.000507966
-0.00116234
-0.000516489
-0.00124884
-0.000535646
-0.00134557
-0.00057121
-0.00147345
-0.000612569
-0.00164957
-0.000623137
-0.00184617
-0.000556462
-0.00195372
-0.000396545
-0.00181149
-0.000190762
-0.00132695
-3.70267e-05
-0.000622048
-6.6696e-05
6.56327e-06
0.000421457
-1.09681e-05
0.000901219
-4.13363e-05
0.00115769
-7.30157e-05
0.00133026
-0.000101668
0.00145508
-0.000125792
0.00152797
-0.000144952
0.00154487
-0.000159517
0.00151083
-0.000170515
0.00143847
-0.000179286
0.00134361
-0.000187053
0.00124062
-0.000194599
0.00113921
-0.0002022
0.0010436
-0.00020979
0.000953946
-0.000217191
0.000868516
-0.000224284
0.000785494
-0.000231065
0.000703754
-0.000237625
0.000622868
-0.000244091
0.000542796
-0.000250589
0.000463588
-0.000257224
0.000385247
-0.000264085
0.000307694
-0.00027124
0.000230798
-0.000278757
0.000154413
-0.000286711
7.8367e-05
-0.000295165
2.45592e-06
-0.000304153
-7.36446e-05
-0.000313681
-0.000150057
-0.00032374
-0.000226996
-0.00033432
-0.000304655
-0.000345404
-0.000383227
-0.000356975
-0.000462916
-0.000369005
-0.000543948
-0.000381445
-0.000626576
-0.000394186
-0.000711058
-0.000406998
-0.000797587
-0.000419443
-0.00088613
-0.000430794
-0.000976179
-0.00044015
-0.0010665
-0.000447167
-0.00115532
-0.000453858
-0.00124215
-0.000466639
-0.00133279
-0.000494329
-0.00144576
-0.000536132
-0.00160776
-0.000565095
-0.00181721
-0.000532146
-0.00198666
-0.000404438
-0.0019392
-0.000210539
-0.00152085
-4.57491e-05
-0.000786835