/*--------------------------------*- C++ -*----------------------------------*\
  =========                 |
  \\      /  F ield         | OpenFOAM: The Open Source CFD Toolbox
   \\    /   O peration     | Website:  https://openfoam.org
    \\  /    A nd           | Version:  7
     \\/     M anipulation  |
\*---------------------------------------------------------------------------*/
FoamFile
{
    version     2.0;
    format      ascii;
    class       volVectorField;
    location    "200";
    object      U;
}
// * * * * * * * * * * * * * * * * * * * * * * * * * * * * * * * * * * * * * //

dimensions      [0 1 -1 0 0 0 0];

internalField   nonuniform List<vector> 
2500
(
(0.000202824 -0.000213561 0)
(0.00187081 -0.000580401 0)
(0.00449521 -0.000703778 0)
(0.00718915 -0.000604267 0)
(0.00925203 -0.000422005 0)
(0.0104663 -0.000267158 0)
(0.0109379 -0.000191457 0)
(0.0108795 -0.000190059 0)
(0.0104364 -0.000224333 0)
(0.00959993 -0.000249381 0)
(0.00821691 -0.000231276 0)
(0.00605157 -0.000151211 0)
(0.00284342 -5.79785e-08 0)
(-0.00165447 0.000227552 0)
(-0.00764999 0.000534978 0)
(-0.0152787 0.000926391 0)
(-0.0245655 0.00140252 0)
(-0.0353825 0.00195244 0)
(-0.0474133 0.00254331 0)
(-0.0601318 0.00311253 0)
(-0.0728083 0.00356928 0)
(-0.0845461 0.00380741 0)
(-0.0943503 0.00372641 0)
(-0.101229 0.00325821 0)
(-0.104301 0.00239328 0)
(-0.102878 0.0011868 0)
(-0.0966581 -0.000232977 0)
(-0.0856992 -0.00169839 0)
(-0.0704457 -0.00303478 0)
(-0.0517318 -0.00407307 0)
(-0.0307544 -0.00466809 0)
(-0.00900583 -0.00470142 0)
(0.0119763 -0.00408881 0)
(0.0307112 -0.00295983 0)
(0.0458775 -0.00155471 0)
(0.0564687 -5.41671e-05 0)
(0.0620561 0.00133877 0)
(0.0628133 0.00241296 0)
(0.0595016 0.00303503 0)
(0.0532791 0.00318748 0)
(0.0453822 0.00297733 0)
(0.0369305 0.00255692 0)
(0.0287826 0.00206333 0)
(0.0214804 0.00159055 0)
(0.0152713 0.00118905 0)
(0.0101787 0.000875783 0)
(0.00610018 0.000641201 0)
(0.00294539 0.000444172 0)
(0.000815975 0.000199387 0)
(-7.83847e-05 -8.36334e-05 0)
(0.000569087 -0.00184827 0)
(0.00439391 -0.00435132 0)
(0.00961048 -0.00514257 0)
(0.0146247 -0.00445246 0)
(0.0181591 -0.00299795 0)
(0.0197313 -0.00144973 0)
(0.0193817 -0.000179441 0)
(0.0173192 0.000785575 0)
(0.0136216 0.00165817 0)
(0.0080898 0.00271914 0)
(0.000277515 0.00418582 0)
(-0.01038 0.00616329 0)
(-0.0244169 0.00865524 0)
(-0.0421982 0.0115943 0)
(-0.0638013 0.0148411 0)
(-0.0889111 0.0181675 0)
(-0.116757 0.0212497 0)
(-0.146129 0.0236922 0)
(-0.175491 0.0250834 0)
(-0.20315 0.0250646 0)
(-0.227443 0.0233876 0)
(-0.246886 0.0199511 0)
(-0.260278 0.0148164 0)
(-0.266757 0.00821109 0)
(-0.265842 0.000519799 0)
(-0.257456 -0.00774685 0)
(-0.241798 -0.016016 0)
(-0.219298 -0.0237358 0)
(-0.190704 -0.0303431 0)
(-0.157087 -0.0353001 0)
(-0.119837 -0.0381384 0)
(-0.0806438 -0.0385054 0)
(-0.0414089 -0.0362286 0)
(-0.00409354 -0.0314674 0)
(0.0294507 -0.0247056 0)
(0.0575269 -0.0166662 0)
(0.0788019 -0.00817236 0)
(0.0924945 -0.000103956 0)
(0.0984619 0.00668527 0)
(0.0972351 0.01159 0)
(0.090243 0.0143839 0)
(0.0792625 0.0152457 0)
(0.0661255 0.01463 0)
(0.0524484 0.0130904 0)
(0.039435 0.0111386 0)
(0.0278055 0.00914981 0)
(0.0178697 0.00729389 0)
(0.00974892 0.00547887 0)
(0.00375988 0.0033812 0)
(0.00033524 0.000939098 0)
(0.000791018 -0.00453343 0)
(0.00570335 -0.00974571 0)
(0.0117233 -0.0109481 0)
(0.0168778 -0.00900485 0)
(0.0196787 -0.00539297 0)
(0.0195518 -0.00141453 0)
(0.0164135 0.0022312 0)
(0.0102534 0.00553389 0)
(0.000833731 0.00894098 0)
(-0.012392 0.0130227 0)
(-0.0301451 0.0181621 0)
(-0.0530548 0.0244316 0)
(-0.0814179 0.0316129 0)
(-0.114984 0.0392334 0)
(-0.152852 0.0466023 0)
(-0.193515 0.0528922 0)
(-0.235059 0.057276 0)
(-0.275434 0.059069 0)
(-0.312711 0.0578305 0)
(-0.345269 0.0534008 0)
(-0.371887 0.0458843 0)
(-0.391734 0.0355987 0)
(-0.404316 0.0230153 0)
(-0.409389 0.00870965 0)
(-0.406889 -0.00667467 0)
(-0.396806 -0.022462 0)
(-0.379164 -0.0379533 0)
(-0.35422 -0.0523695 0)
(-0.322439 -0.064879 0)
(-0.284565 -0.07464 0)
(-0.241662 -0.0808689 0)
(-0.195141 -0.0829377 0)
(-0.146744 -0.080489 0)
(-0.0984683 -0.0735498 0)
(-0.0524303 -0.0626307 0)
(-0.0106538 -0.0487227 0)
(0.0251294 -0.0331062 0)
(0.053522 -0.0172493 0)
(0.0737891 -0.00245255 0)
(0.085691 0.0100798 0)
(0.0894074 0.0194153 0)
(0.086163 0.0251537 0)
(0.0776492 0.0274962 0)
(0.0657513 0.0271154 0)
(0.0522771 0.0249064 0)
(0.0387054 0.0217303 0)
(0.0260591 0.0181685 0)
(0.0149992 0.0143025 0)
(0.00627635 0.00964553 0)
(0.00070939 0.00362373 0)
(0.000922157 -0.00777074 0)
(0.0060648 -0.0156385 0)
(0.0115014 -0.0165412 0)
(0.0150454 -0.0123977 0)
(0.0151986 -0.00562502 0)
(0.0114026 0.00185866 0)
(0.00342558 0.00915818 0)
(-0.0090959 0.0163987 0)
(-0.0268415 0.0243528 0)
(-0.0506326 0.0337692 0)
(-0.0810976 0.044914 0)
(-0.118308 0.0574268 0)
(-0.161555 0.0704106 0)
(-0.209342 0.0826248 0)
(-0.259588 0.092731 0)
(-0.309987 0.099545 0)
(-0.358359 0.10223 0)
(-0.402908 0.100382 0)
(-0.442325 0.0940058 0)
(-0.475768 0.0834173 0)
(-0.502748 0.0691272 0)
(-0.523001 0.0517357 0)
(-0.536361 0.0318673 0)
(-0.542687 0.0101472 0)
(-0.541834 -0.0127789 0)
(-0.533617 -0.0362006 0)
(-0.517901 -0.0592912 0)
(-0.494648 -0.0811019 0)
(-0.46394 -0.100577 0)
(-0.426067 -0.116577 0)
(-0.381616 -0.12796 0)
(-0.331563 -0.133699 0)
(-0.277341 -0.133067 0)
(-0.22086 -0.125817 0)
(-0.164418 -0.112336 0)
(-0.110501 -0.0936999 0)
(-0.0614826 -0.0715873 0)
(-0.01928 -0.048013 0)
(0.0148745 -0.024916 0)
(0.040357 -0.0040642 0)
(0.0571375 0.0132794 0)
(0.0654169 0.0261722 0)
(0.0662878 0.0342093 0)
(0.0612926 0.0377 0)
(0.052212 0.0375295 0)
(0.0408382 0.0348281 0)
(0.0287333 0.0305586 0)
(0.0171496 0.025074 0)
(0.00740917 0.0177998 0)
(0.000861453 0.00740647 0)
(0.00100083 -0.0110562 0)
(0.00557417 -0.0208369 0)
(0.00910784 -0.02028 0)
(0.00943567 -0.0127447 0)
(0.00522622 -0.001694 0)
(-0.00404271 0.0104552 0)
(-0.018851 0.0228208 0)
(-0.0399672 0.0358647 0)
(-0.0683266 0.0505259 0)
(-0.10456 0.067308 0)
(-0.148522 0.0858039 0)
(-0.199081 0.104748 0)
(-0.254241 0.122387 0)
(-0.311514 0.136917 0)
(-0.368378 0.146865 0)
(-0.42266 0.151303 0)
(-0.472748 0.149896 0)
(-0.517597 0.142802 0)
(-0.556628 0.130499 0)
(-0.589563 0.113626 0)
(-0.616288 0.0928588 0)
(-0.63675 0.0688539 0)
(-0.650912 0.0422338 0)
(-0.65871 0.0136051 0)
(-0.660052 -0.0164049 0)
(-0.654805 -0.0470947 0)
(-0.642755 -0.0776331 0)
(-0.623616 -0.107034 0)
(-0.597078 -0.134137 0)
(-0.562883 -0.157597 0)
(-0.520945 -0.175939 0)
(-0.471512 -0.187676 0)
(-0.415343 -0.191518 0)
(-0.353862 -0.186642 0)
(-0.289227 -0.172965 0)
(-0.224247 -0.151359 0)
(-0.162086 -0.123672 0)
(-0.105781 -0.0924957 0)
(-0.0576762 -0.060703 0)
(-0.0190308 -0.0308629 0)
(0.0099867 -0.00480392 0)
(0.0297814 0.0162475 0)
(0.0408785 0.0316041 0)
(0.0444684 0.0410886 0)
(0.0420633 0.0452129 0)
(0.035381 0.0450288 0)
(0.0261836 0.0416405 0)
(0.016137 0.0355741 0)
(0.00706334 0.0261775 0)
(0.00079093 0.0114074 0)
(0.000990865 -0.0139354 0)
(0.00407837 -0.0242238 0)
(0.00436358 -0.0206868 0)
(9.43455e-06 -0.00841153 0)
(-0.0100526 0.00809095 0)
(-0.0263932 0.0261605 0)
(-0.0497681 0.0452165 0)
(-0.0811559 0.0659353 0)
(-0.121241 0.0889464 0)
(-0.169782 0.113889 0)
(-0.225366 0.13926 0)
(-0.285627 0.162876 0)
(-0.347758 0.182511 0)
(-0.409059 0.196408 0)
(-0.467328 0.203536 0)
(-0.521027 0.203596 0)
(-0.569237 0.196857 0)
(-0.61151 0.183935 0)
(-0.647703 0.165597 0)
(-0.677865 0.142633 0)
(-0.702153 0.115793 0)
(-0.720794 0.0857668 0)
(-0.73403 0.0531811 0)
(-0.742067 0.0186166 0)
(-0.745021 -0.0173668 0)
(-0.7429 -0.0541847 0)
(-0.73551 -0.0911599 0)
(-0.722412 -0.127445 0)
(-0.702979 -0.161963 0)
(-0.676428 -0.193347 0)
(-0.641935 -0.21994 0)
(-0.598812 -0.239864 0)
(-0.546761 -0.251205 0)
(-0.486163 -0.252313 0)
(-0.418361 -0.242195 0)
(-0.34582 -0.220924 0)
(-0.272067 -0.189938 0)
(-0.201278 -0.152039 0)
(-0.137539 -0.110988 0)
(-0.0839298 -0.0707059 0)
(-0.041835 -0.0343836 0)
(-0.0109433 -0.00395967 0)
(0.00990775 0.0197893 0)
(0.0219149 0.0365815 0)
(0.0265005 0.0466154 0)
(0.0253239 0.0506537 0)
(0.0201701 0.049677 0)
(0.0129123 0.0441892 0)
(0.00567892 0.0334256 0)
(0.000582718 0.0148851 0)
(0.000825796 -0.0158224 0)
(0.00134434 -0.0245684 0)
(-0.00291599 -0.0163287 0)
(-0.0132163 0.00196569 0)
(-0.0303365 0.0250702 0)
(-0.0549606 0.0504131 0)
(-0.0879851 0.077694 0)
(-0.130137 0.107349 0)
(-0.181225 0.139074 0)
(-0.239743 0.171263 0)
(-0.303098 0.201396 0)
(-0.368218 0.226836 0)
(-0.432188 0.245496 0)
(-0.492676 0.256168 0)
(-0.54808 0.258521 0)
(-0.597471 0.252895 0)
(-0.640435 0.240042 0)
(-0.676931 0.220901 0)
(-0.707184 0.196457 0)
(-0.731614 0.167658 0)
(-0.750774 0.135357 0)
(-0.765277 0.100291 0)
(-0.77571 0.0630635 0)
(-0.782565 0.0241654 0)
(-0.786179 -0.0159949 0)
(-0.786706 -0.057045 0)
(-0.784059 -0.0985794 0)
(-0.777795 -0.140044 0)
(-0.767165 -0.180633 0)
(-0.751084 -0.219193 0)
(-0.728179 -0.254143 0)
(-0.696918 -0.283461 0)
(-0.655845 -0.304776 0)
(-0.603931 -0.315611 0)
(-0.541026 -0.313793 0)
(-0.468303 -0.298016 0)
(-0.388572 -0.268436 0)
(-0.306257 -0.227102 0)
(-0.226859 -0.177968 0)
(-0.155878 -0.12626 0)
(-0.0974066 -0.0772266 0)
(-0.0530276 -0.0347624 0)
(-0.0218187 -0.000719134 0)
(-0.0015965 0.0247146 0)
(0.0096534 0.0418765 0)
(0.0138379 0.051378 0)
(0.0128896 0.054003 0)
(0.0088303 0.0501009 0)
(0.00392369 0.038786 0)
(0.000354177 0.0174416 0)
(0.000439899 -0.0159667 0)
(-0.00276886 -0.0205959 0)
(-0.0126946 -0.00604149 0)
(-0.0298744 0.0194038 0)
(-0.0548334 0.05019 0)
(-0.0883207 0.0839912 0)
(-0.131031 0.120433 0)
(-0.182906 0.159109 0)
(-0.24254 0.198395 0)
(-0.307274 0.235532 0)
(-0.373834 0.267464 0)
(-0.439052 0.291687 0)
(-0.500364 0.306701 0)
(-0.55599 0.312048 0)
(-0.604888 0.30809 0)
(-0.646621 0.295716 0)
(-0.68122 0.276091 0)
(-0.70909 0.250474 0)
(-0.730914 0.220098 0)
(-0.74756 0.186081 0)
(-0.75997 0.149356 0)
(-0.769062 0.110643 0)
(-0.775644 0.0704516 0)
(-0.780363 0.0291125 0)
(-0.783686 -0.0131692 0)
(-0.785882 -0.0562656 0)
(-0.786995 -0.10007 0)
(-0.786725 -0.144382 0)
(-0.784454 -0.188787 0)
(-0.779141 -0.232534 0)
(-0.76928 -0.274407 0)
(-0.752915 -0.312603 0)
(-0.727753 -0.344687 0)
(-0.69146 -0.367687 0)
(-0.642132 -0.37839 0)
(-0.578933 -0.373898 0)
(-0.502777 -0.352402 0)
(-0.416831 -0.314036 0)
(-0.326574 -0.261518 0)
(-0.239112 -0.200197 0)
(-0.161659 -0.137138 0)
(-0.0994963 -0.0792517 0)
(-0.0543344 -0.0312139 0)
(-0.0243685 0.00543633 0)
(-0.00616665 0.0313598 0)
(0.00317203 0.0474979 0)
(0.00616016 0.0546893 0)
(0.005119 0.0532115 0)
(0.00241854 0.0421443 0)
(0.000203476 0.0190657 0)
(-0.000208324 -0.0135359 0)
(-0.0082027 -0.0112459 0)
(-0.0245837 0.0110037 0)
(-0.0491224 0.0444774 0)
(-0.0821251 0.0837828 0)
(-0.124204 0.126696 0)
(-0.175439 0.172232 0)
(-0.234675 0.218714 0)
(-0.299372 0.263229 0)
(-0.366153 0.302309 0)
(-0.431598 0.332927 0)
(-0.492844 0.353142 0)
(-0.547844 0.36224 0)
(-0.595375 0.36053 0)
(-0.63493 0.349023 0)
(-0.666597 0.329139 0)
(-0.69095 0.302474 0)
(-0.708927 0.270621 0)
(-0.721676 0.235025 0)
(-0.73041 0.196886 0)
(-0.736277 0.157104 0)
(-0.740273 0.116279 0)
(-0.743205 0.0747519 0)
(-0.745683 0.0326636 0)
(-0.748162 -0.00998099 0)
(-0.75095 -0.0532623 0)
(-0.754175 -0.0972996 0)
(-0.757763 -0.142188 0)
(-0.761405 -0.18789 0)
(-0.764421 -0.234132 0)
(-0.765642 -0.280253 0)
(-0.76328 -0.32501 0)
(-0.754874 -0.366402 0)
(-0.737387 -0.401547 0)
(-0.707532 -0.426755 0)
(-0.662398 -0.43788 0)
(-0.600322 -0.431057 0)
(-0.521871 -0.403761 0)
(-0.430608 -0.356024 0)
(-0.333239 -0.291373 0)
(-0.238735 -0.216925 0)
(-0.156241 -0.142064 0)
(-0.0922134 -0.0756894 0)
(-0.0481668 -0.0231905 0)
(-0.020994 0.0145368 0)
(-0.00587275 0.0391674 0)
(0.000943287 0.0520882 0)
(0.00252945 0.0538998 0)
(0.00155132 0.0438898 0)
(0.000180888 0.0200442 0)
(-0.00111686 -0.0077738 0)
(-0.0146669 0.00420452 0)
(-0.037823 0.0351539 0)
(-0.0696745 0.0772028 0)
(-0.110252 0.125413 0)
(-0.159763 0.177288 0)
(-0.217387 0.230774 0)
(-0.280889 0.282839 0)
(-0.346948 0.329637 0)
(-0.411949 0.367529 0)
(-0.472704 0.393959 0)
(-0.52684 0.407782 0)
(-0.572891 0.409131 0)
(-0.610233 0.399085 0)
(-0.638982 0.379323 0)
(-0.659868 0.351817 0)
(-0.674064 0.318575 0)
(-0.682986 0.281431 0)
(-0.688081 0.241889 0)
(-0.690661 0.201059 0)
(-0.69181 0.159656 0)
(-0.692362 0.118069 0)
(-0.692912 0.076431 0)
(-0.693872 0.0347083 0)
(-0.69555 -0.00724146 0)
(-0.698203 -0.0496185 0)
(-0.701976 -0.0926406 0)
(-0.706984 -0.136551 0)
(-0.713247 -0.181558 0)
(-0.720582 -0.227775 0)
(-0.728445 -0.275102 0)
(-0.735726 -0.32303 0)
(-0.740524 -0.370375 0)
(-0.739996 -0.414984 0)
(-0.730393 -0.453506 0)
(-0.707419 -0.481397 0)
(-0.667032 -0.493349 0)
(-0.606618 -0.484243 0)
(-0.526356 -0.450638 0)
(-0.430313 -0.392469 0)
(-0.326682 -0.314395 0)
(-0.226584 -0.225892 0)
(-0.141195 -0.139281 0)
(-0.0778346 -0.065666 0)
(-0.0371407 -0.0107661 0)
(-0.0141619 0.0257006 0)
(-0.00286479 0.0463307 0)
(0.00117893 0.0526631 0)
(0.00140295 0.0446404 0)
(0.000286636 0.0207978 0)
(-0.00222401 0.00184579 0)
(-0.0216488 0.0260124 0)
(-0.0513938 0.0662348 0)
(-0.0899617 0.117002 0)
(-0.136997 0.173888 0)
(-0.192079 0.233722 0)
(-0.253434 0.293165 0)
(-0.318001 0.348043 0)
(-0.3821 0.394064 0)
(-0.442249 0.42788 0)
(-0.495711 0.44769 0)
(-0.54071 0.453264 0)
(-0.576442 0.445634 0)
(-0.602994 0.426691 0)
(-0.621207 0.398799 0)
(-0.632467 0.364431 0)
(-0.638442 0.325865 0)
(-0.640801 0.284964 0)
(-0.641004 0.243068 0)
(-0.640189 0.201013 0)
(-0.639151 0.15922 0)
(-0.638394 0.117813 0)
(-0.638206 0.0767327 0)
(-0.638736 0.03582 0)
(-0.640099 -0.00513388 0)
(-0.642443 -0.0463514 0)
(-0.645876 -0.0880326 0)
(-0.650588 -0.130418 0)
(-0.656799 -0.173776 0)
(-0.664714 -0.218406 0)
(-0.674396 -0.264581 0)
(-0.685578 -0.312429 0)
(-0.697375 -0.361687 0)
(-0.707937 -0.411333 0)
(-0.714159 -0.459125 0)
(-0.711616 -0.501205 0)
(-0.694948 -0.532009 0)
(-0.658858 -0.544763 0)
(-0.599702 -0.532789 0)
(-0.517331 -0.491564 0)
(-0.416577 -0.421123 0)
(-0.307524 -0.327882 0)
(-0.203777 -0.224593 0)
(-0.118453 -0.127227 0)
(-0.0589766 -0.0489898 0)
(-0.0240301 0.00497868 0)
(-0.00643385 0.0368109 0)
(0.000552917 0.0497052 0)
(0.00176453 0.044915 0)
(0.000483374 0.0217045 0)
(-0.00338992 0.0155305 0)
(-0.0284962 0.053942 0)
(-0.0641722 0.103584 0)
(-0.108375 0.162746 0)
(-0.160255 0.227444 0)
(-0.218673 0.293544 0)
(-0.281046 0.356465 0)
(-0.343835 0.411274 0)
(-0.403363 0.453695 0)
(-0.456527 0.481013 0)
(-0.501178 0.492367 0)
(-0.536242 0.488535 0)
(-0.56168 0.471509 0)
(-0.578363 0.444012 0)
(-0.587835 0.409016 0)
(-0.591984 0.369315 0)
(-0.592698 0.327196 0)
(-0.591593 0.284289 0)
(-0.589863 0.241568 0)
(-0.588269 0.199478 0)
(-0.587214 0.158109 0)
(-0.586852 0.117347 0)
(-0.587192 0.0769981 0)
(-0.588178 0.0368478 0)
(-0.589774 -0.00330762 0)
(-0.592028 -0.0436474 0)
(-0.594998 -0.0842948 0)
(-0.598832 -0.125402 0)
(-0.603783 -0.167167 0)
(-0.61019 -0.209863 0)
(-0.61845 -0.253866 0)
(-0.628913 -0.299629 0)
(-0.641664 -0.347562 0)
(-0.656161 -0.397742 0)
(-0.670743 -0.449411 0)
(-0.682145 -0.500292 0)
(-0.68528 -0.545942 0)
(-0.673642 -0.57952 0)
(-0.640578 -0.59241 0)
(-0.581405 -0.576034 0)
(-0.495881 -0.52476 0)
(-0.390103 -0.43924 0)
(-0.276656 -0.328754 0)
(-0.171959 -0.210633 0)
(-0.0906072 -0.105119 0)
(-0.0386975 -0.0266561 0)
(-0.0116086 0.0218263 0)
(-0.000307541 0.0445765 0)
(0.00223565 0.0448451 0)
(0.000714621 0.0229607 0)
(-0.00445218 0.0330978 0)
(-0.0345601 0.0872957 0)
(-0.0751097 0.146114 0)
(-0.123506 0.212901 0)
(-0.178351 0.284025 0)
(-0.237832 0.354284 0)
(-0.298808 0.418084 0)
(-0.357597 0.470153 0)
(-0.410788 0.506614 0)
(-0.45582 0.525634 0)
(-0.491239 0.527426 0)
(-0.516758 0.513863 0)
(-0.533149 0.487917 0)
(-0.542013 0.453056 0)
(-0.545406 0.412655 0)
(-0.545422 0.369533 0)
(-0.543842 0.325696 0)
(-0.541945 0.282318 0)
(-0.540488 0.239895 0)
(-0.539796 0.198473 0)
(-0.539917 0.157866 0)
(-0.540752 0.117814 0)
(-0.542152 0.0780663 0)
(-0.543971 0.0384192 0)
(-0.546109 -0.00128511 0)
(-0.548567 -0.0411655 0)
(-0.551368 -0.0812675 0)
(-0.554578 -0.121654 0)
(-0.558362 -0.162409 0)
(-0.562989 -0.203681 0)
(-0.568865 -0.245735 0)
(-0.576533 -0.289014 0)
(-0.586606 -0.334153 0)
(-0.599548 -0.381887 0)
(-0.615234 -0.432716 0)
(-0.632289 -0.486229 0)
(-0.647339 -0.540121 0)
(-0.654599 -0.5892 0)
(-0.646293 -0.624961 0)
(-0.614324 -0.636452 0)
(-0.553107 -0.612875 0)
(-0.462809 -0.547735 0)
(-0.351624 -0.44338 0)
(-0.23545 -0.313735 0)
(-0.133665 -0.182344 0)
(-0.0611298 -0.0737381 0)
(-0.0203297 -0.00136962 0)
(-0.00245373 0.0360456 0)
(0.0023841 0.0440372 0)
(0.000928717 0.0245197 0)
(-0.00526393 0.0539584 0)
(-0.0392893 0.124989 0)
(-0.0833683 0.192429 0)
(-0.134323 0.265718 0)
(-0.19022 0.341559 0)
(-0.248714 0.41375 0)
(-0.306382 0.475998 0)
(-0.359666 0.523085 0)
(-0.405602 0.551832 0)
(-0.442278 0.561468 0)
(-0.469007 0.553391 0)
(-0.486303 0.530597 0)
(-0.49568 0.496961 0)
(-0.499267 0.456483 0)
(-0.499328 0.412627 0)
(-0.497826 0.367919 0)
(-0.496165 0.323843 0)
(-0.495139 0.281009 0)
(-0.49504 0.239447 0)
(-0.495841 0.198896 0)
(-0.497363 0.159014 0)
(-0.4994 0.119498 0)
(-0.501775 0.0801199 0)
(-0.504351 0.0407222 0)
(-0.507044 0.00120212 0)
(-0.509854 -0.0385137 0)
(-0.512802 -0.0784237 0)
(-0.515884 -0.118544 0)
(-0.519162 -0.158881 0)
(-0.522757 -0.199464 0)
(-0.526899 -0.24039 0)
(-0.531992 -0.281899 0)
(-0.538663 -0.324479 0)
(-0.547744 -0.368947 0)
(-0.560075 -0.416394 0)
(-0.575988 -0.467808 0)
(-0.594429 -0.523185 0)
(-0.611894 -0.58012 0)
(-0.621756 -0.63234 0)
(-0.614782 -0.669087 0)
(-0.581394 -0.676449 0)
(-0.515485 -0.641231 0)
(-0.418537 -0.556859 0)
(-0.302062 -0.429359 0)
(-0.186151 -0.279916 0)
(-0.092651 -0.139838 0)
(-0.0341449 -0.0363114 0)
(-0.00669836 0.0221942 0)
(0.00190524 0.0416255 0)
(0.0010993 0.0261289 0)
(-0.0057082 0.0771882 0)
(-0.0422868 0.165674 0)
(-0.088402 0.240977 0)
(-0.140255 0.319432 0)
(-0.195444 0.398176 0)
(-0.25128 0.470191 0)
(-0.304306 0.52883 0)
(-0.351279 0.56925 0)
(-0.389798 0.589199 0)
(-0.418653 0.589102 0)
(-0.437925 0.571588 0)
(-0.448855 0.540722 0)
(-0.453501 0.501081 0)
(-0.454226 0.456886 0)
(-0.45318 0.411355 0)
(-0.451939 0.36646 0)
(-0.451395 0.323046 0)
(-0.451858 0.281185 0)
(-0.453264 0.240555 0)
(-0.455381 0.20073 0)
(-0.457959 0.161342 0)
(-0.460804 0.122126 0)
(-0.463792 0.0829157 0)
(-0.466847 0.0436128 0)
(-0.469934 0.00415522 0)
(-0.473081 -0.0355076 0)
(-0.476315 -0.0753632 0)
(-0.47961 -0.115423 0)
(-0.482961 -0.155671 0)
(-0.486372 -0.196083 0)
(-0.489891 -0.236636 0)
(-0.493669 -0.277371 0)
(-0.498057 -0.318485 0)
(-0.503716 -0.360493 0)
(-0.511662 -0.404393 0)
(-0.523097 -0.451671 0)
(-0.538817 -0.503875 0)
(-0.558062 -0.561417 0)
(-0.577046 -0.621573 0)
(-0.588019 -0.676397 0)
(-0.580024 -0.711999 0)
(-0.542113 -0.710806 0)
(-0.468437 -0.657444 0)
(-0.363258 -0.54706 0)
(-0.242985 -0.392664 0)
(-0.132433 -0.226054 0)
(-0.0539629 -0.0866333 0)
(-0.0135044 0.000664835 0)
(0.00065579 0.0364489 0)
(0.00123119 0.0274335 0)
(-0.0057144 0.101646 0)
(-0.0433377 0.207866 0)
(-0.0899769 0.290187 0)
(-0.141177 0.372415 0)
(-0.194171 0.452333 0)
(-0.24612 0.522368 0)
(-0.293726 0.575826 0)
(-0.334188 0.608503 0)
(-0.365717 0.619235 0)
(-0.387803 0.609711 0)
(-0.401216 0.583767 0)
(-0.407748 0.546369 0)
(-0.409734 0.502512 0)
(-0.409476 0.456297 0)
(-0.408762 0.410419 0)
(-0.408658 0.366157 0)
(-0.409561 0.323742 0)
(-0.411417 0.28283 0)
(-0.413965 0.242908 0)
(-0.416921 0.203525 0)
(-0.420071 0.16437 0)
(-0.423297 0.125261 0)
(-0.426553 0.0861027 0)
(-0.429828 0.0468395 0)
(-0.433127 0.00743148 0)
(-0.436509 -0.032169 0)
(-0.440013 -0.0719603 0)
(-0.443615 -0.111969 0)
(-0.447292 -0.1522 0)
(-0.450999 -0.192628 0)
(-0.45468 -0.233203 0)
(-0.458299 -0.273856 0)
(-0.461911 -0.314559 0)
(-0.465792 -0.355456 0)
(-0.470608 -0.397082 0)
(-0.477541 -0.440634 0)
(-0.488158 -0.488067 0)
(-0.503702 -0.541569 0)
(-0.523586 -0.601898 0)
(-0.543418 -0.665543 0)
(-0.553847 -0.721878 0)
(-0.541924 -0.752654 0)
(-0.495761 -0.736055 0)
(-0.411219 -0.655696 0)
(-0.297462 -0.511957 0)
(-0.177441 -0.329825 0)
(-0.0799556 -0.154923 0)
(-0.0231943 -0.0312634 0)
(-0.00139247 0.0272056 0)
(0.00134288 0.0280626 0)
(-0.00526502 0.126094 0)
(-0.0424036 0.250064 0)
(-0.0881399 0.338586 0)
(-0.137334 0.423276 0)
(-0.186976 0.502869 0)
(-0.23424 0.569524 0)
(-0.276126 0.616767 0)
(-0.310337 0.641218 0)
(-0.335695 0.642895 0)
(-0.35232 0.624759 0)
(-0.361517 0.591728 0)
(-0.365402 0.549429 0)
(-0.366319 0.502957 0)
(-0.366275 0.456 0)
(-0.366577 0.410564 0)
(-0.367797 0.36724 0)
(-0.369955 0.325759 0)
(-0.372793 0.285533 0)
(-0.376003 0.246006 0)
(-0.379349 0.206794 0)
(-0.382704 0.167682 0)
(-0.386033 0.128574 0)
(-0.389357 0.0894254 0)
(-0.392705 0.050207 0)
(-0.396103 0.0108818 0)
(-0.399626 -0.0286063 0)
(-0.403321 -0.068273 0)
(-0.407177 -0.108165 0)
(-0.411174 -0.148314 0)
(-0.415272 -0.188731 0)
(-0.419393 -0.229388 0)
(-0.423428 -0.270212 0)
(-0.427262 -0.311087 0)
(-0.430855 -0.351912 0)
(-0.434404 -0.392767 0)
(-0.438581 -0.434219 0)
(-0.444748 -0.477735 0)
(-0.454861 -0.525865 0)
(-0.470566 -0.581527 0)
(-0.491189 -0.645592 0)
(-0.511162 -0.712843 0)
(-0.518875 -0.768375 0)
(-0.499279 -0.788071 0)
(-0.440663 -0.745961 0)
(-0.342994 -0.627723 0)
(-0.223022 -0.445088 0)
(-0.111075 -0.24143 0)
(-0.0362068 -0.0764602 0)
(-0.00431151 0.0124375 0)
(0.00142577 0.0276154 0)
(-0.00438919 0.149306 0)
(-0.0395917 0.290851 0)
(-0.0831558 0.384881 0)
(-0.129238 0.470906 0)
(-0.174697 0.548996 0)
(-0.216853 0.61132 0)
(-0.253084 0.651833 0)
(-0.281609 0.668097 0)
(-0.301806 0.661342 0)
(-0.314298 0.635721 0)
(-0.320739 0.597052 0)
(-0.323329 0.551342 0)
(-0.324208 0.503495 0)
(-0.324962 0.456598 0)
(-0.32642 0.411932 0)
(-0.328762 0.369495 0)
(-0.331786 0.328688 0)
(-0.335174 0.288833 0)
(-0.338667 0.249431 0)
(-0.342118 0.210206 0)
(-0.345489 0.171042 0)
(-0.348808 0.131902 0)
(-0.352133 0.0927716 0)
(-0.355511 0.0536258 0)
(-0.35897 0.0144208 0)
(-0.362582 -0.0249115 0)
(-0.366402 -0.0644035 0)
(-0.370428 -0.104115 0)
(-0.374647 -0.144103 0)
(-0.379039 -0.184411 0)
(-0.38355 -0.225056 0)
(-0.388077 -0.266009 0)
(-0.39247 -0.307174 0)
(-0.396547 -0.348383 0)
(-0.40018 -0.389458 0)
(-0.403498 -0.430415 0)
(-0.407211 -0.471905 0)
(-0.412921 -0.515798 0)
(-0.423018 -0.56545 0)
(-0.43945 -0.624568 0)
(-0.460965 -0.693545 0)
(-0.479923 -0.763787 0)
(-0.481733 -0.813761 0)
(-0.44971 -0.812131 0)
(-0.374621 -0.730672 0)
(-0.264039 -0.563584 0)
(-0.144837 -0.343277 0)
(-0.0528193 -0.13703 0)
(-0.00825535 -0.00943303 0)
(0.00143273 0.0256487 0)
(-0.00315333 0.170167 0)
(-0.0351154 0.328953 0)
(-0.0754327 0.427992 0)
(-0.117551 0.514485 0)
(-0.158293 0.59025 0)
(-0.195208 0.647737 0)
(-0.226093 0.681471 0)
(-0.249653 0.690007 0)
(-0.265721 0.675746 0)
(-0.275272 0.6439 0)
(-0.280104 0.600959 0)
(-0.282309 0.553045 0)
(-0.283689 0.504664 0)
(-0.285388 0.458222 0)
(-0.287836 0.414334 0)
(-0.290961 0.37256 0)
(-0.294475 0.332129 0)
(-0.298095 0.292384 0)
(-0.301647 0.252933 0)
(-0.305076 0.21361 0)
(-0.308407 0.174371 0)
(-0.311703 0.135213 0)
(-0.315037 0.0961275 0)
(-0.318455 0.0570835 0)
(-0.321976 0.0180248 0)
(-0.325663 -0.0211278 0)
(-0.329576 -0.0604204 0)
(-0.333716 -0.0999202 0)
(-0.338073 -0.139699 0)
(-0.342644 -0.179823 0)
(-0.3474 -0.220344 0)
(-0.35228 -0.261287 0)
(-0.357167 -0.302621 0)
(-0.361872 -0.344224 0)
(-0.366153 -0.385866 0)
(-0.369809 -0.42728 0)
(-0.37293 -0.468443 0)
(-0.376329 -0.510193 0)
(-0.381961 -0.555057 0)
(-0.392712 -0.607497 0)
(-0.410566 -0.671886 0)
(-0.432826 -0.746803 0)
(-0.448551 -0.817443 0)
(-0.439753 -0.852702 0)
(-0.389867 -0.814024 0)
(-0.296104 -0.676706 0)
(-0.177831 -0.454973 0)
(-0.0724918 -0.213296 0)
(-0.013453 -0.0401162 0)
(0.00134258 0.0216962 0)
(-0.00164832 0.187727 0)
(-0.0292535 0.363285 0)
(-0.0654528 0.467067 0)
(-0.10299 0.553451 0)
(-0.13872 0.626428 0)
(-0.170469 0.678971 0)
(-0.196453 0.706259 0)
(-0.215797 0.707828 0)
(-0.228675 0.687151 0)
(-0.236245 0.650324 0)
(-0.240278 0.604279 0)
(-0.242619 0.555048 0)
(-0.244684 0.506619 0)
(-0.247222 0.460733 0)
(-0.250382 0.417466 0)
(-0.253967 0.376092 0)
(-0.257694 0.335789 0)
(-0.261357 0.295986 0)
(-0.264871 0.256405 0)
(-0.268247 0.216967 0)
(-0.271546 0.177672 0)
(-0.274845 0.138526 0)
(-0.278212 0.0995155 0)
(-0.281688 0.0605957 0)
(-0.285283 0.0216986 0)
(-0.289044 -0.017264 0)
(-0.29304 -0.0563493 0)
(-0.297275 -0.0956281 0)
(-0.301731 -0.135181 0)
(-0.306414 -0.175085 0)
(-0.311314 -0.215416 0)
(-0.316401 -0.256235 0)
(-0.321606 -0.297573 0)
(-0.326794 -0.339391 0)
(-0.331746 -0.38153 0)
(-0.336159 -0.42368 0)
(-0.339773 -0.465476 0)
(-0.342692 -0.50691 0)
(-0.345956 -0.549224 0)
(-0.352034 -0.59602 0)
(-0.364313 -0.653197 0)
(-0.384218 -0.725127 0)
(-0.406168 -0.805828 0)
(-0.414584 -0.869965 0)
(-0.388837 -0.874355 0)
(-0.316424 -0.777136 0)
(-0.206629 -0.569682 0)
(-0.0936959 -0.3033 0)
(-0.0201044 -0.0811962 0)
(0.00119305 0.015288 0)
(2.08153e-05 0.201243 0)
(-0.0223161 0.392954 0)
(-0.0537167 0.501465 0)
(-0.0862549 0.587458 0)
(-0.116859 0.65751 0)
(-0.14364 0.70534 0)
(-0.165211 0.726809 0)
(-0.181035 0.722361 0)
(-0.1915 0.696405 0)
(-0.197799 0.655727 0)
(-0.20154 0.607509 0)
(-0.204247 0.557548 0)
(-0.206964 0.50929 0)
(-0.210132 0.463895 0)
(-0.213729 0.421037 0)
(-0.217525 0.379835 0)
(-0.221292 0.339495 0)
(-0.224907 0.299549 0)
(-0.228355 0.259821 0)
(-0.231687 0.220288 0)
(-0.234977 0.18097 0)
(-0.238298 0.141868 0)
(-0.241713 0.102955 0)
(-0.245256 0.0641754 0)
(-0.248928 0.0254494 0)
(-0.252763 -0.0133175 0)
(-0.256841 -0.0521924 0)
(-0.26117 -0.0912489 0)
(-0.265721 -0.130573 0)
(-0.270501 -0.170248 0)
(-0.275508 -0.210361 0)
(-0.280728 -0.250995 0)
(-0.286126 -0.292221 0)
(-0.291625 -0.334073 0)
(-0.29707 -0.376491 0)
(-0.3022 -0.419256 0)
(-0.306657 -0.461949 0)
(-0.310144 -0.504112 0)
(-0.312872 -0.545885 0)
(-0.316295 -0.589318 0)
(-0.3236 -0.639716 0)
(-0.338465 -0.704531 0)
(-0.360494 -0.786108 0)
(-0.37918 -0.868844 0)
(-0.373704 -0.911579 0)
(-0.324085 -0.859849 0)
(-0.228581 -0.6806 0)
(-0.114374 -0.403209 0)
(-0.0281965 -0.133752 0)
(0.00104455 0.00593406 0)
(0.00174532 0.210195 0)
(-0.0146199 0.417259 0)
(-0.0407043 0.530721 0)
(-0.0679831 0.616323 0)
(-0.0934669 0.683598 0)
(-0.115537 0.727208 0)
(-0.13316 0.743686 0)
(-0.146053 0.734272 0)
(-0.1547 0.70414 0)
(-0.160206 0.660586 0)
(-0.163927 0.61089 0)
(-0.167045 0.56055 0)
(-0.170278 0.51251 0)
(-0.173851 0.467465 0)
(-0.17766 0.424818 0)
(-0.181498 0.383625 0)
(-0.18521 0.343156 0)
(-0.188742 0.303043 0)
(-0.192123 0.263184 0)
(-0.195423 0.223589 0)
(-0.198715 0.184281 0)
(-0.202064 0.145248 0)
(-0.205524 0.106451 0)
(-0.209129 0.0678223 0)
(-0.212874 0.0292764 0)
(-0.216777 -0.00928747 0)
(-0.220934 -0.0479452 0)
(-0.225365 -0.0867754 0)
(-0.23002 -0.125868 0)
(-0.23491 -0.165313 0)
(-0.240029 -0.2052 0)
(-0.245373 -0.245623 0)
(-0.250922 -0.286677 0)
(-0.256634 -0.328442 0)
(-0.262417 -0.370943 0)
(-0.268087 -0.41408 0)
(-0.273332 -0.457534 0)
(-0.277737 -0.500743 0)
(-0.281022 -0.543201 0)
(-0.283659 -0.585501 0)
(-0.287798 -0.631214 0)
(-0.297484 -0.688119 0)
(-0.315898 -0.76436 0)
(-0.338535 -0.855424 0)
(-0.347901 -0.928278 0)
(-0.31985 -0.922447 0)
(-0.242219 -0.782012 0)
(-0.132562 -0.508166 0)
(-0.0373534 -0.197569 0)
(0.000883719 -0.00680455 0)
(0.00342117 0.214306 0)
(-0.0064716 0.435643 0)
(-0.0268584 0.554516 0)
(-0.0487265 0.639981 0)
(-0.0691676 0.704849 0)
(-0.0867894 0.744929 0)
(-0.100865 0.757373 0)
(-0.111286 0.744072 0)
(-0.118534 0.710791 0)
(-0.123537 0.665173 0)
(-0.127349 0.614497 0)
(-0.13082 0.563961 0)
(-0.134405 0.51609 0)
(-0.138186 0.47124 0)
(-0.142042 0.428647 0)
(-0.145817 0.387361 0)
(-0.149422 0.346727 0)
(-0.152855 0.306459 0)
(-0.15617 0.2665 0)
(-0.159439 0.226878 0)
(-0.162731 0.187606 0)
(-0.166097 0.148662 0)
(-0.169589 0.109992 0)
(-0.173242 0.0715254 0)
(-0.17705 0.0331713 0)
(-0.181008 -0.00517627 0)
(-0.185238 -0.0436042 0)
(-0.189778 -0.0821965 0)
(-0.194554 -0.121051 0)
(-0.199573 -0.160258 0)
(-0.204831 -0.199913 0)
(-0.210321 -0.240114 0)
(-0.216032 -0.280967 0)
(-0.22194 -0.322579 0)
(-0.22799 -0.365033 0)
(-0.234064 -0.408328 0)
(-0.239936 -0.452283 0)
(-0.24523 -0.496427 0)
(-0.249495 -0.540033 0)
(-0.252562 -0.582717 0)
(-0.25543 -0.626151 0)
(-0.261298 -0.676573 0)
(-0.274851 -0.744634 0)
(-0.296792 -0.835584 0)
(-0.315269 -0.928687 0)
(-0.305665 -0.964921 0)
(-0.247288 -0.869874 0)
(-0.146838 -0.61322 0)
(-0.0468879 -0.270994 0)
(0.000587374 -0.0233346 0)
(0.00490841 0.213417 0)
(0.00182777 0.447799 0)
(-0.0125693 0.57261 0)
(-0.0289533 0.658433 0)
(-0.0444564 0.721443 0)
(-0.0578625 0.758809 0)
(-0.0687034 0.768243 0)
(-0.0769791 0.752123 0)
(-0.0830957 0.716629 0)
(-0.0877449 0.669616 0)
(-0.09166 0.61831 0)
(-0.0953839 0.567655 0)
(-0.0991635 0.519862 0)
(-0.103001 0.475064 0)
(-0.106791 0.432414 0)
(-0.110434 0.390983 0)
(-0.113901 0.350185 0)
(-0.117223 0.309788 0)
(-0.120463 0.269765 0)
(-0.123691 0.230145 0)
(-0.126965 0.190932 0)
(-0.130332 0.152091 0)
(-0.133836 0.113561 0)
(-0.13752 0.0752684 0)
(-0.141376 0.0371224 0)
(-0.145375 -0.000986169 0)
(-0.149668 -0.0391669 0)
(-0.15432 -0.0775004 0)
(-0.159231 -0.116099 0)
(-0.164401 -0.155056 0)
(-0.169826 -0.194469 0)
(-0.175499 -0.234436 0)
(-0.181408 -0.275069 0)
(-0.187539 -0.316491 0)
(-0.193856 -0.358819 0)
(-0.200283 -0.402126 0)
(-0.206665 -0.446349 0)
(-0.212716 -0.491167 0)
(-0.217996 -0.53589 0)
(-0.22206 -0.579678 0)
(-0.225055 -0.622726 0)
(-0.228917 -0.668994 0)
(-0.238144 -0.728796 0)
(-0.256801 -0.814014 0)
(-0.279362 -0.917636 0)
(-0.284086 -0.989073 0)
(-0.24452 -0.941938 0)
(-0.156487 -0.714012 0)
(-0.0560196 -0.351411 0)
(-3.68358e-05 -0.0440413 0)
(0.00606082 0.207799 0)
(0.00991713 0.453284 0)
(0.00185069 0.584942 0)
(-0.00904795 0.671701 0)
(-0.0197213 0.733539 0)
(-0.0290917 0.769081 0)
(-0.036913 0.776554 0)
(-0.0432456 0.758651 0)
(-0.0483731 0.721796 0)
(-0.0527198 0.673948 0)
(-0.0566956 0.622265 0)
(-0.060566 0.571506 0)
(-0.0644136 0.52369 0)
(-0.0681966 0.478829 0)
(-0.071841 0.436047 0)
(-0.0753074 0.394453 0)
(-0.07861 0.353509 0)
(-0.0818012 0.313017 0)
(-0.0849475 0.272964 0)
(-0.0881117 0.233372 0)
(-0.0913455 0.194238 0)