/*--------------------------------*- C++ -*----------------------------------*\
  =========                 |
  \\      /  F ield         | OpenFOAM: The Open Source CFD Toolbox
   \\    /   O peration     | Website:  https://openfoam.org
    \\  /    A nd           | Version:  7
     \\/     M anipulation  |
\*---------------------------------------------------------------------------*/
FoamFile
{
    version     2.0;
    format      ascii;
    class       volScalarField;
    location    "250";
    object      p;
}
// * * * * * * * * * * * * * * * * * * * * * * * * * * * * * * * * * * * * * //

dimensions      [0 2 -2 0 0 0 0];

internalField   nonuniform List<scalar> 
2500
(
2.22807e-06
-8.2055e-05
-0.000398446
-0.000943162
-0.00165229
-0.0024776
-0.00338766
-0.00436196
-0.00538636
-0.00644903
-0.00753711
-0.00863441
-0.00972012
-0.0107683
-0.0117483
-0.0126252
-0.0133616
-0.0139194
-0.0142624
-0.0143593
-0.0141867
-0.0137333
-0.0130023
-0.0120147
-0.0108107
-0.00944976
-0.00800908
-0.00658043
-0.00526486
-0.00416553
-0.00337972
-0.00299033
-0.00305808
-0.00361532
-0.00466227
-0.00616634
-0.00806463
-0.0102696
-0.0126773
-0.0151755
-0.0176529
-0.020006
-0.0221456
-0.0239987
-0.0255091
-0.0266372
-0.0273599
-0.0276733
-0.0276128
-0.0273676
8.93679e-05
-2.86014e-06
-0.000292291
-0.000779645
-0.00141298
-0.00215372
-0.00297673
-0.00386509
-0.00480654
-0.00579043
-0.00680511
-0.00783605
-0.00886469
-0.00986797
-0.0108184
-0.0116845
-0.0124323
-0.0130263
-0.0134325
-0.0136203
-0.0135663
-0.0132571
-0.012693
-0.01189
-0.0108828
-0.00972389
-0.00848325
-0.00724533
-0.00610408
-0.00515623
-0.00449348
-0.00419429
-0.00431623
-0.00488978
-0.00591471
-0.00735944
-0.00916372
-0.011244
-0.0135013
-0.0158306
-0.0181286
-0.0203013
-0.0222691
-0.0239693
-0.0253561
-0.0263995
-0.0270843
-0.0274045
-0.0273671
-0.0271212
0.000417983
0.000276012
-2.7394e-05
-0.000486354
-0.00106372
-0.00173293
-0.0024772
-0.00328543
-0.00414943
-0.00506165
-0.00601313
-0.00699206
-0.00798281
-0.00896538
-0.00991528
-0.0108039
-0.0115991
-0.0122668
-0.0127727
-0.013085
-0.0131773
-0.0130322
-0.0126445
-0.0120244
-0.0112
-0.0102181
-0.0091427
-0.00805365
-0.0070411
-0.00619911
-0.00561779
-0.00537491
-0.00552797
-0.00610775
-0.00711448
-0.00851711
-0.010256
-0.0122489
-0.0143987
-0.0166031
-0.0187638
-0.0207929
-0.0226185
-0.0241874
-0.0254638
-0.0264277
-0.0270703
-0.0273816
-0.0273383
-0.027064
0.000999135
0.000763502
0.000399847
-6.95182e-05
-0.000625219
-0.00125361
-0.00194708
-0.00270201
-0.00351624
-0.00438707
-0.00530967
-0.00627587
-0.00727327
-0.00828458
-0.00928732
-0.0102538
-0.0111518
-0.0119452
-0.0125967
-0.0130696
-0.0133317
-0.0133587
-0.0131386
-0.0126748
-0.0119894
-0.0111252
-0.0101434
-0.0091227
-0.00815402
-0.00733379
-0.00675572
-0.00650188
-0.00663408
-0.00718685
-0.00816296
-0.00953239
-0.011235
-0.0131868
-0.0152886
-0.017436
-0.0195298
-0.0214838
-0.0232297
-0.0247197
-0.0259255
-0.0268345
-0.0274433
-0.0277395
-0.0276835
-0.0273904
0.0017639
0.00139962
0.000941561
0.000435273
-0.0001226
-0.000733696
-0.00140094
-0.00212945
-0.00292437
-0.00378902
-0.00472363
-0.00572424
-0.0067818
-0.00788129
-0.00900114
-0.0101129
-0.0111818
-0.0121673
-0.0130257
-0.0137128
-0.0141877
-0.0144172
-0.0143807
-0.0140739
-0.0135127
-0.0127363
-0.0118044
-0.0107961
-0.00980552
-0.00893426
-0.00828312
-0.00794233
-0.00798215
-0.00844488
-0.00933942
-0.0106396
-0.0122863
-0.014194
-0.0162601
-0.0183756
-0.0204371
-0.0223554
-0.0240623
-0.025512
-0.0266808
-0.0275612
-0.028155
-0.0284517
-0.0284088
-0.0281336
0.00263474
0.00211666
0.00154103
0.000979818
0.000401602
-0.000213416
-0.000880165
-0.00161358
-0.00242695
-0.00333032
-0.00432949
-0.00542499
-0.00661091
-0.0078738
-0.00919164
-0.0105334
-0.0118591
-0.0131211
-0.0142667
-0.0152411
-0.0159923
-0.0164762
-0.0166615
-0.0165346
-0.0161037
-0.0154046
-0.0144943
-0.0134531
-0.0123787
-0.0113797
-0.0105666
-0.0100415
-0.0098876
-0.0101602
-0.0108796
-0.0120284
-0.0135527
-0.0153681
-0.0173692
-0.0194422
-0.0214769
-0.023378
-0.0250727
-0.0265137
-0.0276779
-0.0285608
-0.0291676
-0.0294923
-0.0294976
-0.0292796
0.0035268
0.00283852
0.00213077
0.0015022
0.000887899
0.000246978
-0.000448964
-0.00122556
-0.00210481
-0.00310393
-0.00423453
-0.00550153
-0.0069017
-0.00842207
-0.0100386
-0.0117153
-0.0134048
-0.0150496
-0.0165849
-0.0179429
-0.0190579
-0.0198722
-0.0203417
-0.0204412
-0.020169
-0.0195541
-0.0186503
-0.017537
-0.0163153
-0.0151013
-0.0140176
-0.0131818
-0.0126955
-0.0126334
-0.0130349
-0.0138988
-0.0151829
-0.0168092
-0.0186734
-0.020657
-0.0226424
-0.0245247
-0.0262222
-0.0276807
-0.0288731
-0.0297938
-0.0304483
-0.0308347
-0.0309237
-0.0307968
0.00434466
0.0034773
0.00262968
0.00192512
0.0012598
0.000568938
-0.00019073
-0.00105628
-0.0020589
-0.00322318
-0.00456659
-0.00609814
-0.0078165
-0.0097079
-0.0117444
-0.0138831
-0.0160665
-0.0182246
-0.0202781
-0.0221433
-0.0237382
-0.0249884
-0.0258342
-0.0262353
-0.0261763
-0.0256756
-0.0247801
-0.0235656
-0.0221346
-0.0206106
-0.0191291
-0.017827
-0.0168302
-0.0162407
-0.0161265
-0.0165127
-0.0173791
-0.0186629
-0.0202663
-0.0220701
-0.0239487
-0.0257853
-0.0274843
-0.0289784
-0.0302295
-0.0312248
-0.0319657
-0.0324505
-0.0326574
-0.0326493
0.0049824
0.00393365
0.0029436
0.0021565
0.00142451
0.000656485
-0.000206936
-0.00121496
-0.00240831
-0.00381916
-0.00547074
-0.00737569
-0.00953366
-0.0119286
-0.014527
-0.0172768
-0.020108
-0.0229358
-0.0256635
-0.0281891
-0.0304108
-0.0322345
-0.0335807
-0.0343901
-0.0346289
-0.0342994
-0.0334368
-0.032109
-0.0304164
-0.0284874
-0.0264709
-0.0245252
-0.0228057
-0.0214505
-0.0205668
-0.0202196
-0.0204241
-0.0211449
-0.0223017
-0.0237805
-0.0254503
-0.0271805
-0.0288563
-0.0303899
-0.0317239
-0.0328295
-0.0336966
-0.0343179
-0.034675
-0.0348084
0.00532544
0.00409874
0.0029676
0.00209189
0.00127553
0.000399069
-0.000613973
-0.00182553
-0.00328626
-0.00503605
-0.00710378
-0.00950521
-0.0122399
-0.0152883
-0.0186093
-0.0221396
-0.0257948
-0.0294724
-0.0330562
-0.0364224
-0.0394463
-0.0420102
-0.0440107
-0.0453649
-0.0460158
-0.0459435
-0.0451662
-0.043738
-0.0417522
-0.0393382
-0.0366553
-0.0338835
-0.0312107
-0.0288183
-0.0268643
-0.0254678
-0.0246968
-0.024561
-0.0250125
-0.0259545
-0.0272566
-0.0287746
-0.0303699
-0.0319254
-0.0333542
-0.0346002
-0.0356316
-0.0364272
-0.0369655
-0.0372603
0.00525374
0.00385774
0.00258963
0.00161855
0.000697198
-0.000323397
-0.00153754
-0.00302045
-0.00483307
-0.00702325
-0.00962533
-0.0126576
-0.0161187
-0.0199837
-0.0242025
-0.0286985
-0.0333705
-0.0380959
-0.0427357
-0.0471415
-0.0511621
-0.0546524
-0.0574812
-0.059538
-0.0607386
-0.0610358
-0.0604259
-0.0589421
-0.056665
-0.0537185
-0.0502666
-0.046507
-0.0426595
-0.0389516
-0.035601
-0.0327954
-0.0306745
-0.0293151
-0.0287239
-0.0288394
-0.0295444
-0.030686
-0.0320988
-0.0336277
-0.0351435
-0.0365493
-0.0377782
-0.0387841
-0.039534
-0.0400095
0.00464654
0.00309458
0.00169565
0.000621008
-0.00042921
-0.00163376
-0.00310522
-0.00493249
-0.00718719
-0.0099253
-0.0131865
-0.0169909
-0.021335
-0.0261874
-0.0314865
-0.0371405
-0.0430285
-0.0490049
-0.0549052
-0.0605525
-0.0657665
-0.0703712
-0.0742051
-0.0771277
-0.0790254
-0.079821
-0.0794853
-0.0780251
-0.0755013
-0.0720249
-0.067756
-0.0629008
-0.0577036
-0.0524353
-0.0473753
-0.0427901
-0.0389092
-0.0359007
-0.0338539
-0.0327701
-0.0325668
-0.0330948
-0.0341645
-0.0355753
-0.0371419
-0.03871
-0.040161
-0.0414097
-0.0424015
-0.0430788
0.00338835
0.00169799
0.000175852
-0.00101221
-0.00221807
-0.00364961
-0.00543768
-0.00768519
-0.0104747
-0.0138704
-0.017917
-0.0226358
-0.0280194
-0.0340282
-0.040587
-0.0475855
-0.0548804
-0.0622996
-0.0696493
-0.0767218
-0.0833046
-0.08919
-0.094185
-0.0981196
-0.100851
-0.102274
-0.102331
-0.101001
-0.0983201
-0.0943777
-0.0893191
-0.0833458
-0.0767128
-0.0697215
-0.0627061
-0.0560126
-0.0499712
-0.0448644
-0.0408951
-0.0381631
-0.0366539
-0.0362469
-0.0367396
-0.0378843
-0.0394264
-0.0411351
-0.0428199
-0.0443389
-0.0456031
-0.0465069
0.00137567
-0.000431797
-0.0020683
-0.00338107
-0.00477135
-0.00647452
-0.00863937
-0.0113828
-0.0147985
-0.0189586
-0.0239123
-0.0296807
-0.0362511
-0.0435728
-0.0515541
-0.0600627
-0.0689287
-0.0779501
-0.0869006
-0.095539
-0.10362
-0.110904
-0.11717
-0.122221
-0.125889
-0.128042
-0.128605
-0.127526
-0.124812
-0.120527
-0.114791
-0.107783
-0.09975
-0.0910029
-0.0819109
-0.0728865
-0.0643591
-0.0567383
-0.0503696
-0.0454916
-0.042203
-0.0404517
-0.0400491
-0.0407092
-0.0421001
-0.0438949
-0.0458072
-0.047617
-0.0491846
-0.0503436
-0.00147612
-0.00337613
-0.00511696
-0.00656643
-0.00817048
-0.0101894
-0.0127892
-0.0161004
-0.0202275
-0.0252502
-0.0312209
-0.0381589
-0.0460436
-0.0548098
-0.0643455
-0.074492
-0.0850488
-0.0957796
-0.106423
-0.116703
-0.126343
-0.135075
-0.142653
-0.148861
-0.153513
-0.156459
-0.157609
-0.156891
-0.154286
-0.149826
-0.143596
-0.135743
-0.126481
-0.116105
-0.104986
-0.0935771
-0.0823854
-0.0719436
-0.0627561
-0.0552371
-0.049651
-0.0460702
-0.0443665
-0.0442422
-0.0452916
-0.0470753
-0.0491849
-0.0512955
-0.0531975
-0.054644
-0.00522631
-0.00719148
-0.00902521
-0.010623
-0.0124689
-0.0148448
-0.0179324
-0.0218753
-0.0267879
-0.0327565
-0.0398351
-0.0480384
-0.0573347
-0.0676404
-0.0788181
-0.0906784
-0.102985
-0.115465
-0.127819
-0.139739
-0.150917
-0.161064
-0.169916
-0.177247
-0.182862
-0.186606
-0.188378
-0.188103
-0.185735
-0.18128
-0.174788
-0.166359
-0.156159
-0.144436
-0.131531
-0.117891
-0.104065
-0.0906805
-0.0783936
-0.0678162
-0.0594266
-0.0534887
-0.0500026
-0.0487097
-0.0491534
-0.050776
-0.0530212
-0.0554286
-0.0576937
-0.0594634
-0.00990352
-0.0119041
-0.0138176
-0.0155736
-0.0176861
-0.0204544
-0.0240742
-0.0287006
-0.0344569
-0.041434
-0.0496851
-0.0592173
-0.0699835
-0.0818771
-0.0947305
-0.108319
-0.122366
-0.136559
-0.150564
-0.164038
-0.176653
-0.188101
-0.198112
-0.206458
-0.21295
-0.217435
-0.219811
-0.220012
-0.217978
-0.213693
-0.207174
-0.198474
-0.1877
-0.175031
-0.160744
-0.145236
-0.129042
-0.112833
-0.0973822
-0.0834905
-0.0718813
-0.0630745
-0.057282
-0.0543625
-0.0538589
-0.0551085
-0.0573884
-0.0600693
-0.0627214
-0.0648519
-0.0155018
-0.0175062
-0.0194841
-0.0214052
-0.0238035
-0.0269913
-0.0311758
-0.0365219
-0.0431595
-0.051182
-0.0606387
-0.0715252
-0.0837746
-0.0972524
-0.111756
-0.127021
-0.14273
-0.15853
-0.17405
-0.188924
-0.202803
-0.215374
-0.226368
-0.235566
-0.242793
-0.24791
-0.250823
-0.251486
-0.249832
-0.245838
-0.239494
-0.230812
-0.21984
-0.20668
-0.191519
-0.174666
-0.156586
-0.137925
-0.119507
-0.102281
-0.0872109
-0.0751162
-0.0665059
-0.0614564
-0.0595937
-0.0601923
-0.0623593
-0.0652654
-0.0683198
-0.0708481
-0.0219792
-0.0239544
-0.0259788
-0.0280669
-0.0307629
-0.0343867
-0.0391541
-0.0452371
-0.05277
-0.0618455
-0.0725055
-0.0847303
-0.0984289
-0.113435
-0.129507
-0.146337
-0.163567
-0.180806
-0.197651
-0.213715
-0.22864
-0.242114
-0.25388
-0.263734
-0.271523
-0.277132
-0.280477
-0.281544
-0.28027
-0.276631
-0.270603
-0.26217
-0.25133
-0.238112
-0.222607
-0.20501
-0.18567
-0.165142
-0.144216
-0.123912
-0.105383
-0.0897567
-0.0779024
-0.0702232
-0.0665418
-0.0661485
-0.0680038
-0.071056
-0.0745149
-0.0774751
-0.0292578
-0.03117
-0.0332201
-0.0354716
-0.0384679
-0.0425315
-0.0478835
-0.0546999
-0.0631163
-0.0732214
-0.0850465
-0.0985525
-0.113621
-0.13005
-0.147557
-0.165792
-0.184357
-0.202824
-0.220768
-0.237786
-0.253519
-0.267664
-0.27998
-0.290288
-0.298462
-0.304411
-0.308072
-0.309456
-0.30852
-0.305244
-0.299604
-0.291568
-0.281102
-0.268177
-0.252798
-0.235042
-0.215117
-0.193432
-0.170664
-0.147799
-0.126095
-0.106934
-0.0915719
-0.080831
-0.0748624
-0.0730884
-0.0743818
-0.0774658
-0.0813146
-0.084734
-0.0372268
-0.0390423
-0.0410943
-0.0434985
-0.0467875
-0.051281
-0.0572017
-0.0647263
-0.0739883
-0.0850694
-0.0979868
-0.112679
-0.128998
-0.146704
-0.165475
-0.184921
-0.204603
-0.224069
-0.242872
-0.260605
-0.276914
-0.291509
-0.304173
-0.31475
-0.323143
-0.329291
-0.333154
-0.334761
-0.334095
-0.331147
-0.325903
-0.31833
-0.308376
-0.295979
-0.281079
-0.263652
-0.243764
-0.221651
-0.197814
-0.173107
-0.148771
-0.126348
-0.10744
-0.0933429
-0.0846617
-0.0810971
-0.0815346
-0.0844994
-0.088703
-0.0925995
-0.0457474
-0.0474331
-0.0494602
-0.0519991
-0.0555621
-0.0604614
-0.0669173
-0.0751037
-0.0851486
-0.097124
-0.11103
-0.126782
-0.1442
-0.163009
-0.182848
-0.203289
-0.223864
-0.244096
-0.26353
-0.281757
-0.298433
-0.313288
-0.326127
-0.336823
-0.345303
-0.351531
-0.355495
-0.357237
-0.356765
-0.354086
-0.3492
-0.342083
-0.332686
-0.320933
-0.306726
-0.28997
-0.270612
-0.248718
-0.224581
-0.198847
-0.172618
-0.147462
-0.12523
-0.107679
-0.0959616
-0.0902136
-0.0894733
-0.0921329
-0.0966332
-0.101013
-0.0546592
-0.0561837
-0.0581566
-0.0608047
-0.064612
-0.0698787
-0.0768191
-0.0856011
-0.0963441
-0.109108
-0.123874
-0.140535
-0.158879
-0.178598
-0.199297
-0.220516
-0.241763
-0.262546
-0.282405
-0.300935
-0.317808
-0.332773
-0.345659
-0.35636
-0.36483
-0.371055
-0.375041
-0.376843
-0.376493
-0.374013
-0.369419
-0.362706
-0.353837
-0.342742
-0.329313
-0.313415
-0.294913
-0.273732
-0.249962
-0.223998
-0.196712
-0.169548
-0.144463
-0.123593
-0.108672
-0.100409
-0.0981648
-0.100306
-0.105022
-0.109878
-0.063788
-0.0651227
-0.0670101
-0.0697347
-0.0737457
-0.079328
-0.0866869
-0.0959806
-0.107318
-0.120744
-0.136224
-0.153625
-0.172709
-0.193139
-0.21449
-0.236279
-0.257996
-0.27914
-0.299251
-0.317934
-0.334875
-0.349844
-0.362688
-0.373325
-0.381723
-0.387889
-0.391844
-0.393652
-0.393365
-0.391015
-0.386639
-0.380251
-0.371835
-0.36134
-0.34867
-0.333681
-0.316195
-0.296041
-0.273136
-0.24763
-0.220104
-0.191761
-0.164493
-0.140672
-0.122571
-0.111569
-0.107519
-0.108913
-0.113742
-0.119053
-0.0729544
-0.0740741
-0.075844
-0.0786058
-0.0827702
-0.0886042
-0.0963014
-0.106008
-0.11782
-0.13177
-0.147803
-0.165767
-0.185401
-0.206344
-0.22815
-0.250319
-0.272328
-0.293675
-0.313902
-0.332626
-0.349548
-0.364454
-0.377208
-0.387742
-0.39604
-0.40212
-0.406016
-0.407794
-0.407523
-0.405246
-0.401016
-0.394866
-0.386807
-0.376813
-0.364814
-0.350683
-0.334235
-0.315246
-0.293514
-0.268979
-0.241923
-0.213226
-0.184563
-0.158356
-0.137305
-0.123478
-0.117379
-0.117796
-0.12262
-0.128351
-0.0819819
-0.0828664
-0.0844869
-0.0872413
-0.0914998
-0.0975106
-0.105454
-0.115463
-0.127619
-0.141942
-0.158361
-0.176708
-0.196705
-0.217974
-0.240053
-0.262431
-0.284584
-0.306007
-0.32625
-0.344941
-0.361792
-0.376602
-0.389248
-0.399672
-0.407866
-0.413855
-0.417681
-0.419411
-0.419126
-0.416875
-0.412726
-0.406733
-0.398929
-0.38932
-0.377869
-0.364481
-0.348992
-0.331168
-0.310739
-0.287491
-0.261443
-0.233124
-0.203874
-0.175983
-0.152396
-0.135819
-0.127509
-0.126739
-0.131428
-0.137535
-0.0907049
-0.0913397
-0.0927803
-0.0954786
-0.0997647
-0.105868
-0.113956
-0.124146
-0.136508
-0.151047
-0.167683
-0.186235
-0.206415
-0.227832
-0.25002
-0.272464
-0.294637
-0.316041
-0.336232
-0.354846
-0.371603
-0.386312
-0.398856
-0.409183
-0.417288
-0.423198
-0.426958
-0.428634
-0.428317
-0.426058
-0.421939
-0.416029
-0.408385
-0.399045
-0.388007
-0.375216
-0.360547
-0.343786
-0.324647
-0.302821
-0.278123
-0.250755
-0.22166
-0.192837
-0.167272
-0.148176
-0.137598
-0.135465
-0.13989
-0.146316
-0.0989762
-0.0993527
-0.100586
-0.103177
-0.107418
-0.113522
-0.121643
-0.131885
-0.144308
-0.158905
-0.175589
-0.194173
-0.214363
-0.235768
-0.25792
-0.280306
-0.302404
-0.323718
-0.343814
-0.36233
-0.378993
-0.393615
-0.406082
-0.416339
-0.424381
-0.430235
-0.433946
-0.435571
-0.435215
-0.432926
-0.428795
-0.422908
-0.415342
-0.406162
-0.395404
-0.383057
-0.36904
-0.353184
-0.335218
-0.314798
-0.291606
-0.265571
-0.23724
-0.208208
-0.181302
-0.160053
-0.147261
-0.143639
-0.147672
-0.154361
-0.106672
-0.106789
-0.10779
-0.110221
-0.114341
-0.120347
-0.128383
-0.138543
-0.150876
-0.165371
-0.181936
-0.200384
-0.220425
-0.241671
-0.26366
-0.285884
-0.307829
-0.329005
-0.34898
-0.367396
-0.383982
-0.398546
-0.410969
-0.421194
-0.42921
-0.435038
-0.43872
-0.44031
-0.439914
-0.437581
-0.433409
-0.427495
-0.419937
-0.410824
-0.400225
-0.388172
-0.374634
-0.359495
-0.342525
-0.323388
-0.301698
-0.277188
-0.250052
-0.221434
-0.193838
-0.170896
-0.156046
-0.150865
-0.154397
-0.161289
-0.113695
-0.11356
-0.11431
-0.11653
-0.120448
-0.126251
-0.134078
-0.144014
-0.156104
-0.170335
-0.186617
-0.204769
-0.22451
-0.245462
-0.267174
-0.289149
-0.31088
-0.331883
-0.351728
-0.370055
-0.386589
-0.40113
-0.413552
-0.423788
-0.431818
-0.437656
-0.441338
-0.442912
-0.442482
-0.4401
-0.435867
-0.42989
-0.422283
-0.413156
-0.40261
-0.390715
-0.377491
-0.362874
-0.346691
-0.328644
-0.308333
-0.285371
-0.259673
-0.231944
-0.204251
-0.180118
-0.163451
-0.1567
-0.159638
-0.16668
-0.119978
-0.119604
-0.120094
-0.122052
-0.125685
-0.131177
-0.138663
-0.148231
-0.159923
-0.173729
-0.189568
-0.207272
-0.226573
-0.24711
-0.268447
-0.290099
-0.311569
-0.332376
-0.35209
-0.370347
-0.38686
-0.401419
-0.413885
-0.424178
-0.432264
-0.438148
-0.441856
-0.443432
-0.442972
-0.440542
-0.436236
-0.43017
-0.422469
-0.413265
-0.402682
-0.390826
-0.377762
-0.363479
-0.347865
-0.330675
-0.311535
-0.290008
-0.265811
-0.239268
-0.21196
-0.187127
-0.168936
-0.160655
-0.162925
-0.170073
-0.125482
-0.124892
-0.125117
-0.12677
-0.130035
-0.135099
-0.142107
-0.151151
-0.162283
-0.175503
-0.190743
-0.207851
-0.226579
-0.246588
-0.26746
-0.288724
-0.309891
-0.330486
-0.350074
-0.368282
-0.38481
-0.399433
-0.411993
-0.422394
-0.430587
-0.436562
-0.440337
-0.44195
-0.441479
-0.439002
-0.434609
-0.428426
-0.420588
-0.411246
-0.400549
-0.38863
-0.37559
-0.361465
-0.346204
-0.329622
-0.311394
-0.291083
-0.268294
-0.243049
-0.216456
-0.191343
-0.171934
-0.162197
-0.163745
-0.170966
-0.130198
-0.129422
-0.129385
-0.130693
-0.13351
-0.138028
-0.144412
-0.152772
-0.163177
-0.175646
-0.19013
-0.206499
-0.224531
-0.243909
-0.264233
-0.285052
-0.305884
-0.326254
-0.345723
-0.363906
-0.380485
-0.395216
-0.40792
-0.418479
-0.426827
-0.432938
-0.436817
-0.438495
-0.438039
-0.435532
-0.43106
-0.424754
-0.41676
-0.407236
-0.39635
-0.384263
-0.371115
-0.356985
-0.341869
-0.32564
-0.308033
-0.288647
-0.26704
-0.243029
-0.217303
-0.192217
-0.171865
-0.160759
-0.161539
-0.168814
-0.134144
-0.133219
-0.132933
-0.133861
-0.136148
-0.14
-0.145608
-0.153117
-0.162623
-0.174174
-0.187749
-0.203244
-0.220464
-0.239115
-0.258822
-0.279146
-0.299615
-0.319754
-0.339115
-0.357297
-0.373964
-0.388846
-0.401742
-0.41251
-0.421063
-0.427357
-0.431383
-0.433162
-0.432747
-0.430229
-0.425686
-0.419253
-0.411082
-0.401345
-0.390222
-0.377894
-0.364519
-0.350217
-0.335031
-0.318898
-0.301604
-0.282797
-0.262043
-0.239038
-0.214142
-0.189232
-0.168132
-0.155725
-0.155692
-0.163014
-0.137364
-0.136333
-0.135818
-0.136335
-0.138012
-0.141072
-0.145746
-0.152228
-0.160659
-0.171124
-0.183639
-0.198131
-0.214431
-0.232274
-0.251302
-0.271093
-0.291178
-0.311083
-0.330348
-0.348555
-0.365345
-0.380422
-0.393559
-0.404589
-0.413399
-0.419926
-0.424145
-0.426067
-0.425728
-0.423224
-0.418627
-0.412071
-0.403715
-0.393735
-0.382325
-0.369679
-0.355977
-0.341361
-0.325903
-0.309588
-0.292273
-0.273659
-0.253341
-0.230968
-0.206672
-0.181901
-0.160121
-0.146428
-0.145516
-0.152887
-0.139922
-0.138835
-0.138116
-0.138195
-0.13918
-0.141316
-0.144891
-0.150162
-0.157335
-0.166548
-0.177857
-0.191225
-0.206512
-0.223476
-0.241778
-0.261005
-0.280696
-0.30037
-0.319555
-0.337814
-0.354763
-0.37008
-0.383507
-0.39485
-0.403971
-0.410785
-0.415249
-0.417359
-0.417143
-0.414684
-0.410059
-0.403395
-0.394853
-0.384613
-0.372874
-0.359839
-0.345703
-0.330623
-0.314698
-0.297935
-0.280235
-0.261374
-0.241
-0.218753
-0.194636
-0.169752
-0.147188
-0.13212
-0.130217
-0.137639
-0.141899
-0.140815
-0.139923
-0.139536
-0.139738
-0.14081
-0.14311
-0.146982
-0.152714
-0.16051
-0.170477
-0.182614
-0.196809
-0.212841
-0.230385
-0.249036
-0.268333
-0.287787
-0.306913
-0.325254
-0.3424
-0.358
-0.371765
-0.383474
-0.392962
-0.400119
-0.404883
-0.407236
-0.407193
-0.404821
-0.400205
-0.393457
-0.384739
-0.374229
-0.362128
-0.34864
-0.333962
-0.318262
-0.301652
-0.284158
-0.265704
-0.246106
-0.22509
-0.202337
-0.177785
-0.152305
-0.128631
-0.111942
-0.108859
-0.116313
-0.143397
-0.142382
-0.14135
-0.140458
-0.139775
-0.139629
-0.140469
-0.14275
-0.14686
-0.153084
-0.161586
-0.172405
-0.185452
-0.200522
-0.217297
-0.235376
-0.254293
-0.273551
-0.292648
-0.311105
-0.328487
-0.344413
-0.358567
-0.370694
-0.380604
-0.388163
-0.393288
-0.395943
-0.39613
-0.393897
-0.389334
-0.382539
-0.373663
-0.362884
-0.350393
-0.336388
-0.321062
-0.304578
-0.287046
-0.268502
-0.248882
-0.228019
-0.205682
-0.181644
-0.155849
-0.129033
-0.103658
-0.0848795
-0.0802993
-0.0877064
-0.144537
-0.143666
-0.142522
-0.141069
-0.139374
-0.137835
-0.137019
-0.137516
-0.139833
-0.144348
-0.151288
-0.160728
-0.1726
-0.186704
-0.202727
-0.22026
-0.238831
-0.257929
-0.277036
-0.29565
-0.31331
-0.329608
-0.344198
-0.356797
-0.367186
-0.375207
-0.380754
-0.383774
-0.384254
-0.382223
-0.377765
-0.370965
-0.361962
-0.35092
-0.338016
-0.323433
-0.307346
-0.2899
-0.271191
-0.25124
-0.229979
-0.207248
-0.182825
-0.156555
-0.128487
-0.099318
-0.0713264
-0.0496817
-0.0430903
-0.0502501
-0.145469
-0.144827
-0.143587
-0.141478
-0.138603
-0.135469
-0.132791
-0.131317
-0.13169
-0.134389
-0.139704
-0.147741
-0.158445
-0.171616
-0.18693
-0.203971
-0.22225
-0.241241
-0.260407
-0.279225
-0.29721
-0.313926
-0.329
-0.342121
-0.353044
-0.361586
-0.36762
-0.37107
-0.371908
-0.370148
-0.36585
-0.359097
-0.350001
-0.338707
-0.325371
-0.310147
-0.293179
-0.274579
-0.254406
-0.23265
-0.20921
-0.183906
-0.156516
-0.126896
-0.0952546
-0.0624025
-0.0304992
-0.0047788
0.00466586
-0.00181075
-0.146401
-0.146074
-0.144718
-0.141796
-0.137515
-0.132546
-0.127791
-0.124174
-0.122487
-0.123307
-0.12698
-0.133638
-0.143226
-0.155532
-0.170217
-0.186843
-0.204906
-0.223858
-0.243145
-0.262221
-0.28058
-0.297761
-0.313364
-0.327055
-0.338563
-0.347681
-0.35426
-0.358204
-0.359466
-0.358042
-0.353965
-0.347307
-0.338154
-0.32662
-0.312829
-0.296896
-0.278918
-0.258954
-0.237005
-0.212998
-0.186769
-0.158084
-0.126685
-0.0924356
-0.0556189
-0.0173468
0.0201796
0.0517195
0.065397
0.0605069
-0.147651
-0.147706
-0.146147
-0.142148
-0.136148
-0.129058
-0.122005
-0.116105
-0.112289
-0.111225
-0.113302
-0.11866
-0.127232
-0.138784
-0.152951
-0.169269
-0.18721
-0.206207
-0.225683
-0.245077
-0.263858
-0.281547
-0.297721
-0.312022
-0.324157
-0.333896
-0.341069
-0.34556
-0.347301
-0.346268
-0.342469
-0.335949
-0.326767
-0.314998
-0.300724
-0.284006
-0.264879
-0.243325
-0.219262
-0.192516
-0.162822
-0.129839
-0.0932277
-0.0528171
-0.00893398
0.0370215
0.0823673
0.12198
0.142006
0.140399
-0.149776
-0.150198
-0.148201
-0.142696
-0.134542
-0.12499
-0.115424
-0.107141
-0.101195
-0.0983152
-0.0989105
-0.10311
-0.110819
-0.121768
-0.135558
-0.151694
-0.169623
-0.188755
-0.208495
-0.228263
-0.247511
-0.265743
-0.282516
-0.297453
-0.310241
-0.32063
-0.328429
-0.3335
-0.335756
-0.335149
-0.331663
-0.325308
-0.31611
-0.304099
-0.289302
-0.271717
-0.251294
-0.227918
-0.201386
-0.171388
-0.1375
-0.0992143
-0.0560344
-0.00768164
0.0455249
0.102056
0.158269
0.208768
0.238291
0.242739
-0.153837
-0.154373
-0.151403
-0.143691
-0.132787
-0.120368
-0.108082
-0.0973775
-0.0893744
-0.084828
-0.0841305
-0.0873732
-0.094416
-0.104945
-0.11852
-0.134614
-0.152644
-0.172
-0.19207
-0.212259
-0.232005
-0.250797
-0.268177
-0.283753
-0.297194
-0.308232
-0.316657
-0.322312
-0.325087
-0.32491
-0.32174
-0.315554
-0.306333
-0.294056
-0.278687
-0.260145
-0.238281
-0.212856
-0.183513
-0.149755
-0.110938
-0.0663074
-0.0151104
0.0431576
0.108312
0.17878
0.250359
0.316037
0.360517
0.37595
-0.161962
-0.161734
-0.156638
-0.145585
-0.131116
-0.115348
-0.10014
-0.0870322
-0.0771276
-0.0711333
-0.0693919
-0.0719246
-0.078528
-0.0888348
-0.102361
-0.118544
-0.136776
-0.156428
-0.176873
-0.197505
-0.217751
-0.23709
-0.255053
-0.271236
-0.285292
-0.296939
-0.305951
-0.312153
-0.315413
-0.315636
-0.312751
-0.306701
-0.297427
-0.284851
-0.268858
-0.249279
-0.225851
-0.198187
-0.165741
-0.127781
-0.0833754
-0.0314275
0.0291999
0.0994013
0.179318
0.267554
0.359869
0.447919
0.516608
0.553452
-0.178405
-0.175086
-0.165456
-0.149224
-0.130056
-0.110343
-0.0920029
-0.0765378
-0.0649295
-0.0577493
-0.0552392
-0.0573182
-0.0637041
-0.0739699
-0.0875866
-0.10396
-0.122459
-0.14244
-0.163266
-0.184321
-0.205028
-0.224859
-0.243339
-0.260052
-0.274645
-0.286822
-0.296343
-0.303017
-0.306693
-0.307254
-0.3046
-0.298639
-0.289269
-0.276355
-0.259702
-0.239039
-0.213979
-0.183968
-0.148249
-0.105811
-0.0553709
0.00461577
0.0758344
0.159817
0.257354
0.367548
0.486383
0.605991
0.7078
0.779821
-0.211325
-0.199521
-0.180357
-0.155849
-0.13038
-0.105975
-0.0842512
-0.0664629
-0.0533473
-0.0452554
-0.0422378
-0.0440877
-0.0504344
-0.0607888
-0.0745802
-0.091187
-0.109961
-0.130249
-0.151407
-0.172818
-0.193902
-0.21413
-0.233021
-0.250158
-0.265179
-0.27778
-0.28771
-0.294765
-0.298777
-0.299607
-0.297129
-0.291217
-0.281725
-0.268461
-0.251157
-0.229435
-0.20278
-0.170474
-0.131534
-0.084657
-0.0281617
0.040033
0.122352
0.221336
0.339091
0.476194
0.629771
0.791359
0.930619
1.03507
-0.280248
-0.243405
-0.202824
-0.16483
-0.131095
-0.101379
-0.0763115
-0.0565482
-0.042358
-0.0337385
-0.0305197
-0.0323705
-0.0388354
-0.0493719
-0.0633789
-0.0802181
-0.0992333
-0.119768
-0.14118
-0.162855
-0.184216
-0.204733
-0.22393
-0.241384
-0.256732
-0.269665
-0.279921
-0.287286
-0.291578
-0.292638
-0.290318
-0.284459
-0.274875
-0.261323
-0.243465
-0.22084
-0.192818
-0.158531
-0.116799
-0.0660507
-0.00422777
0.0713029
0.163818
0.277236
0.415926
0.584119
0.784031
1.00988
1.21713
1.36924
-0.457985
-0.313092
-0.218524
-0.164595
-0.124193
-0.0903173
-0.0635331
-0.0435011
-0.0295081
-0.021236
-0.0184464
-0.0207479
-0.0276365
-0.038554
-0.0529014
-0.0700475
-0.089345
-0.110147
-0.131821
-0.153761
-0.175397
-0.196204
-0.215707
-0.233485
-0.24917
-0.26245
-0.273056
-0.280764
-0.285381
-0.286734
-0.284653
-0.278959
-0.269432
-0.255792
-0.23766
-0.21452
-0.185664
-0.150125
-0.106595
-0.053325
0.0119997
0.0924225
0.191931
0.315778
0.470993
0.667283
0.918065
1.23958
1.62915
2.07737
-0.913055
-0.400312
-0.194396
-0.145744
-0.108149
-0.0713128
-0.0445487
-0.0263747
-0.0140674
-0.00705116
-0.00528049
-0.00842663
-0.0159981
-0.0274693
-0.0422805
-0.0598319
-0.0794993
-0.100654
-0.122679
-0.144978
-0.166988
-0.188187
-0.208103
-0.226312
-0.242445
-0.256182
-0.267252
-0.275421
-0.280487
-0.282268
-0.280584
-0.275242
-0.266013
-0.252601
-0.23461
-0.211499
-0.182536
-0.146722
-0.102713
-0.0487079
0.0176925
0.0996829
0.201566
0.329301
0.491596
0.702374
0.98669
1.39867
2.06763
3.21981
)
;

boundaryField
{
    movingWall
    {
        type            zeroGradient;
    }
    fixedWalls
    {
        type            zeroGradient;
    }
    frontAndBack
    {
        type            empty;
    }
}


// ************************************************************************* //
