/*--------------------------------*- C++ -*----------------------------------*\
  =========                 |
  \\      /  F ield         | OpenFOAM: The Open Source CFD Toolbox
   \\    /   O peration     | Website:  https://openfoam.org
    \\  /    A nd           | Version:  7
     \\/     M anipulation  |
\*---------------------------------------------------------------------------*/
FoamFile
{
    version     2.0;
    format      ascii;
    class       surfaceScalarField;
    location    "250";
    object      phi;
}
// * * * * * * * * * * * * * * * * * * * * * * * * * * * * * * * * * * * * * //

dimensions      [0 3 -1 0 0 0 0];

internalField   nonuniform List<scalar> 
4900
(
5.37422e-07
-5.48234e-07
1.31973e-06
-7.8235e-07
1.8515e-06
-5.31804e-07
1.92031e-06
-6.88319e-08
1.47279e-06
4.47495e-07
5.24421e-07
9.48335e-07
-8.87881e-07
1.41227e-06
-2.7292e-06
1.84129e-06
-4.97506e-06
2.24583e-06
-7.61122e-06
2.63612e-06
-1.06291e-05
3.01781e-06
-1.40194e-05
3.39029e-06
-1.7766e-05
3.74663e-06
-2.18404e-05
4.07434e-06
-2.61968e-05
4.3564e-06
-3.07694e-05
4.5725e-06
-3.54697e-05
4.70033e-06
-4.01868e-05
4.71706e-06
-4.47877e-05
4.60092e-06
-4.91207e-05
4.33297e-06
-5.30199e-05
3.8991e-06
-5.63118e-05
3.29195e-06
-5.88246e-05
2.51278e-06
-6.03978e-05
1.57309e-06
-6.08935e-05
4.95727e-07
-6.02087e-05
-6.84836e-07
-5.82848e-05
-1.92394e-06
-5.51174e-05
-3.16746e-06
-5.07623e-05
-4.35512e-06
-4.53381e-05
-5.42423e-06
-3.90239e-05
-6.3142e-06
-3.20524e-05
-6.97151e-06
-2.46979e-05
-7.35461e-06
-1.72597e-05
-7.43815e-06
-1.00438e-05
-7.21593e-06
-3.34178e-06
-6.70207e-06
2.58847e-06
-5.93027e-06
7.5395e-06
-4.95105e-06
1.13658e-05
-3.82633e-06
1.39896e-05
-2.62379e-06
1.5401e-05
-1.41145e-06
1.56534e-05
-2.52383e-07
1.4855e-05
7.98384e-07
1.31612e-05
1.69374e-06
1.07725e-05
2.3887e-06
7.94048e-06
2.83203e-06
4.9862e-06
2.95427e-06
2.33036e-06
2.65583e-06
5.14524e-07
1.81583e-06
5.14522e-07
7.86947e-07
-1.33523e-06
1.66647e-06
-1.66196e-06
1.7803e-06
-6.45715e-07
7.44092e-07
9.67303e-07
-1.56932e-06
2.76083e-06
-5.15587e-06
4.53481e-06
-9.96027e-06
6.21658e-06
-1.59194e-05
7.80035e-06
-2.29795e-05
9.30587e-06
-3.10964e-05
1.07529e-05
-4.02262e-05
1.21475e-05
-5.03128e-05
1.34768e-05
-6.12745e-05
1.47083e-05
-7.29927e-05
1.57924e-05
-8.53027e-05
1.66664e-05
-9.7989e-05
1.72587e-05
-0.000110783
1.74946e-05
-0.000123367
1.73009e-05
-0.000135379
1.66127e-05
-0.000146425
1.53785e-05
-0.000156092
1.35667e-05
-0.000163972
1.11711e-05
-0.000169674
8.21539e-06
-0.000172857
4.75618e-06
-0.000173247
8.84793e-07
-0.000170658
-3.27335e-06
-0.000165017
-7.56504e-06
-0.000156371
-1.18135e-05
-0.000144898
-1.58284e-05
-0.000130906
-1.94164e-05
-0.000114826
-2.23941e-05
-9.71963e-05
-2.46014e-05
-7.86371e-05
-2.59139e-05
-5.98205e-05
-2.62548e-05
-4.14335e-05
-2.5603e-05
-2.41392e-05
-2.39964e-05
-8.53819e-06
-2.15314e-05
4.86593e-06
-1.83552e-05
1.56949e-05
-1.46554e-05
2.3715e-05
-1.06439e-05
2.8843e-05
-6.53951e-06
3.1145e-05
-2.55445e-06
3.08278e-05
1.11558e-06
2.82272e-05
4.29429e-06
2.38025e-05
6.81341e-06
1.81398e-05
8.49467e-06
1.19689e-05
9.12523e-06
6.18364e-06
8.44102e-06
1.82908e-06
6.17037e-06
2.3436e-06
4.86062e-07
-1.82133e-06
4.45932e-07
-1.62192e-06
-9.71718e-07
7.71855e-07
-4.15033e-06
4.14584e-06
-9.21779e-06
7.82821e-06
-1.61697e-05
1.14866e-05
-2.49464e-05
1.49932e-05
-3.54747e-05
1.83286e-05
-4.76825e-05
2.15136e-05
-6.14956e-05
2.45658e-05
-7.68244e-05
2.74763e-05
-9.35478e-05
3.02001e-05
-0.000111497
3.26569e-05
-0.00013044
3.47359e-05
-0.000150078
3.63046e-05
-0.000170038
3.72187e-05
-0.000189877
3.73335e-05
-0.000209091
3.65149e-05
-0.00022713
3.46514e-05
-0.000243417
3.1665e-05
-0.000257372
2.75213e-05
-0.000268439
2.22381e-05
-0.000276114
1.5891e-05
-0.000279975
8.61687e-06
-0.000279704
6.13232e-07
-0.000275113
-7.8642e-06
-0.000266162
-1.65157e-05
-0.000252969
-2.50065e-05
-0.000235814
-3.29834e-05
-0.000215138
-4.0093e-05
-0.00019153
-4.60026e-05
-0.000165709
-5.04217e-05
-0.0001385
-5.31233e-05
-0.000110792
-5.39629e-05
-8.35023e-05
-5.28927e-05
-5.75289e-05
-4.99698e-05
-3.37042e-05
-4.53561e-05
-1.275e-05
-3.93095e-05
4.76105e-06
-3.21665e-05
1.84358e-05
-2.43187e-05
2.80809e-05
-1.61846e-05
3.37086e-05
-8.18223e-06
3.55349e-05
-7.10691e-07
3.39713e-05
5.8578e-06
2.96151e-05
1.11696e-05
2.32459e-05
1.48638e-05
1.58295e-05
1.65416e-05
8.52454e-06
1.5746e-05
2.69216e-06
1.20027e-05
5.03576e-06
-1.63335e-07
-1.65803e-06
-1.81361e-06
2.82657e-08
-5.58561e-06
4.54378e-06
-1.17316e-05
1.02917e-05
-2.03057e-05
1.64022e-05
-3.12688e-05
2.24497e-05
-4.45471e-05
2.82714e-05
-6.00579e-05
3.38393e-05
-7.77124e-05
3.91681e-05
-9.74044e-05
4.42578e-05
-0.000118992
4.90634e-05
-0.000142276
5.34849e-05
-0.00016699
5.73701e-05
-0.000192779
6.05255e-05
-0.000219206
6.2731e-05
-0.000245745
6.37578e-05
-0.000271798
6.33866e-05
-0.000296709
6.14256e-05
-0.000319786
5.77281e-05
-0.000340329
5.22076e-05
-0.000357658
4.48506e-05
-0.000371146
3.57256e-05
-0.000380243
2.49878e-05
-0.000384505
1.28796e-05
-0.00038362
-2.72134e-07
-0.000377422
-1.40627e-05
-0.000365906
-2.80318e-05
-0.000349237
-4.16752e-05
-0.000327753
-5.44671e-05
-0.000301962
-6.58843e-05
-0.000272532
-7.54331e-05
-0.000240275
-8.26789e-05
-0.000206123
-8.72752e-05
-0.000171095
-8.89911e-05
-0.000136255
-8.77329e-05
-0.000102665
-8.35593e-05
-7.13366e-05
-7.66847e-05
-4.31746e-05
-6.74715e-05
-1.89318e-05
-5.64093e-05
8.33236e-07
-4.40838e-05
1.57879e-05
-3.11393e-05
2.58451e-05
-1.82394e-05
3.11679e-05
-6.03355e-06
3.21679e-05
4.85778e-06
2.94933e-05
1.38442e-05
2.40212e-05
2.03359e-05
1.68521e-05
2.37106e-05
9.31661e-06
2.32815e-05
3.01607e-06
1.83032e-05
8.05183e-06
-1.03654e-06
-6.21525e-07
-4.79256e-06
3.7842e-06
-1.15376e-05
1.12888e-05
-2.12909e-05
2.0045e-05
-3.397e-05
2.90812e-05
-4.94658e-05
3.79455e-05
-6.76739e-05
4.64793e-05
-8.84949e-05
5.46602e-05
-0.00011182
6.24929e-05
-0.000137506
6.99436e-05
-0.000165351
7.69089e-05
-0.000195077
8.321e-05
-0.000226308
8.86015e-05
-0.000258573
9.27905e-05
-0.000291303
9.54602e-05
-0.000323841
9.62957e-05
-0.000355464
9.50101e-05
-0.000385407
9.13683e-05
-0.000412887
8.52082e-05
-0.000437138
7.64584e-05
-0.000457437
6.51496e-05
-0.000473134
5.14221e-05
-0.000483673
3.55272e-05
-0.000488617
1.78238e-05
-0.000487661
-1.22817e-06
-0.000480649
-2.10753e-05
-0.00046758
-4.11007e-05
-0.00044862
-6.06351e-05
-0.000424106
-7.89814e-05
-0.000394547
-9.54434e-05
-0.000360623
-0.000109357
-0.000323174
-0.000120128
-0.000283182
-0.000127267
-0.000241745
-0.000130429
-0.000200034
-0.000129444
-0.000159251
-0.000124342
-0.00012057
-0.000115366
-8.50762e-05
-0.000102965
-5.37122e-05
-8.77734e-05
-2.72188e-05
-7.05773e-05
-6.09452e-06
-5.22636e-05
9.43612e-06
-3.37701e-05
1.94409e-05
-1.60383e-05
2.42784e-05
2.02013e-08
2.45935e-05
1.35291e-05
2.13005e-05
2.36289e-05
1.55768e-05
2.94343e-05
8.86767e-06
2.99906e-05
2.93249e-06
2.42384e-05
1.09843e-05
-2.06745e-06
1.44589e-06
-8.28702e-06
1.00037e-05
-1.84582e-05
2.14599e-05
-3.22896e-05
3.38762e-05
-4.9512e-05
4.63035e-05
-6.99179e-05
5.83513e-05
-9.33555e-05
6.99168e-05
-0.0001197
8.10048e-05
-0.000148816
9.16085e-05
-0.000180518
0.000101645
-0.000214541
0.000110932
-0.000250523
0.000119191
-0.000287988
0.000126067
-0.000326357
0.000131159
-0.00036495
0.000134054
-0.000403013
0.000134358
-0.000439738
0.000131735
-0.000474294
0.000125925
-0.000505859
0.000116773
-0.000533646
0.000104245
-0.000556928
8.84309e-05
-0.000575058
6.95525e-05
-0.00058749
4.7959e-05
-0.000593786
2.41199e-05
-0.000593631
-1.38366e-06
-0.000586841
-2.78647e-05
-0.000573377
-5.45654e-05
-0.000553349
-8.06627e-05
-0.000527036
-0.000105295
-0.000494891
-0.000127589
-0.000457549
-0.0001467
-0.000415828
-0.000161849
-0.00037072
-0.000172375
-0.00032337
-0.000177779
-0.000275042
-0.000177772
-0.000227071
-0.000172314
-0.000180801
-0.000161636
-0.000137518
-0.000146248
-9.83778e-05
-0.000126913
-6.43371e-05
-0.000104618
-3.60939e-05
-8.05068e-05
-1.40444e-05
-5.58197e-05
1.74352e-06
-3.18262e-05
1.15406e-05
-9.77688e-06
1.59506e-05
9.11906e-06
1.5889e-05
2.36905e-05
1.25733e-05
3.275e-05
7.51947e-06
3.50443e-05
2.5721e-06
2.91858e-05
1.35564e-05
-3.21302e-06
4.65888e-06
-1.21475e-05
1.8938e-05
-2.60549e-05
3.53672e-05
-4.42768e-05
5.2098e-05
-6.63219e-05
6.83486e-05
-9.18627e-05
8.3892e-05
-0.000120688
9.8742e-05
-0.000152639
0.000112956
-0.000187546
0.000126516
-0.000225178
0.000139277
-0.000265206
0.000150961
-0.000307188
0.000161172
-0.00035056
0.000169439
-0.000394655
0.000175253
-0.000438714
0.000178113
-0.00048192
0.000177564
-0.000523423
0.000173237
-0.000562371
0.000164873
-0.000597941
0.000152343
-0.000629354
0.000135658
-0.000655901
0.000114978
-0.000676947
9.0599e-05
-0.000691947
6.29583e-05
-0.000700445
3.2618e-05
-0.000702087
2.58441e-07
-0.000696627
-3.3325e-05
-0.00068394
-6.72525e-05
-0.000664039
-0.000100563
-0.000637095
-0.000132239
-0.000603455
-0.000161229
-0.000563661
-0.000186493
-0.000518464
-0.000207046
-0.000468827
-0.000222012
-0.000415912
-0.000230693
-0.000361059
-0.000232625
-0.000305732
-0.000227641
-0.00025146
-0.000215908
-0.000199758
-0.00019795
-0.000152032
-0.000174639
-0.000109501
-0.000147149
-7.311e-05
-0.000116898
-4.34723e-05
-8.54574e-05
-2.08297e-05
-5.44689e-05
-5.03596e-06
-2.55707e-05
4.43809e-06
-3.55011e-07
8.48893e-06
1.96396e-05
8.34827e-06
3.28907e-05
5.57237e-06
3.78202e-05
2.04317e-06
3.2715e-05
1.55996e-05
-4.43736e-06
9.0962e-06
-1.62449e-05
3.07455e-05
-3.40678e-05
5.319e-05
-5.68425e-05
7.48726e-05
-8.38339e-05
9.53399e-05
-0.000114582
0.00011464
-0.000148806
0.000132967
-0.000186309
0.000150458
-0.000226881
0.000167088
-0.000270242
0.000182639
-0.000316004
0.000196722
-0.000363651
0.00020882
-0.000412554
0.000218342
-0.000461981
0.00022468
-0.000511128
0.00022726
-0.000559151
0.000225587
-0.000605194
0.000219281
-0.000648419
0.000208098
-0.000688023
0.000191946
-0.000723255
0.000170891
-0.000753427
0.000145149
-0.000777913
0.000115085
-0.000796156
8.1201e-05
-0.000807667
4.41293e-05
-0.000812034
4.62485e-06
-0.000808922
-3.64371e-05
-0.0007981
-7.80744e-05
-0.000779453
-0.000119211
-0.000753009
-0.000158683
-0.000718968
-0.000195269
-0.000677736
-0.000227726
-0.000629943
-0.000254839
-0.000576472
-0.000275483
-0.00051846
-0.000288705
-0.000457283
-0.000293802
-0.00039452
-0.000290403
-0.000331888
-0.00027854
-0.000271149
-0.000258689
-0.000214011
-0.000231777
-0.000162007
-0.000199154
-0.000116395
-0.00016251
-7.8069e-05
-0.000123783
-4.75011e-05
-8.50367e-05
-2.47126e-05
-4.83592e-05
-9.27887e-06
-1.57887e-05
-3.51146e-07
1.07119e-05
3.30238e-06
2.92371e-05
3.26205e-06
3.78605e-05
1.42821e-06
3.45488e-05
1.70278e-05
-5.70426e-06
1.48004e-05
-2.04523e-05
4.54934e-05
-4.22441e-05
7.49817e-05
-6.95903e-05
0.000102219
-0.000101501
0.000127251
-0.000137378
0.000150517
-0.00017687
0.000172458
-0.000219732
0.000193319
-0.000265713
0.000213069
-0.000314487
0.000231412
-0.000365607
0.000247842
-0.000418505
0.000261718
-0.0004725
0.000272337
-0.000526826
0.000279006
-0.000580664
0.000281097
-0.000633171
0.000278094
-0.000683512
0.000269622
-0.000730879
0.000255464
-0.000774504
0.000235571
-0.000813666
0.000210054
-0.000847697
0.000179181
-0.000875977
0.000143365
-0.000897934
0.000103158
-0.000913044
5.92393e-05
-0.000920835
1.24154e-05
-0.000920888
-3.63842e-05
-0.000912862
-8.60997e-05
-0.000896507
-0.000135567
-0.000871688
-0.000183501
-0.00083843
-0.000228528
-0.00079695
-0.000269207
-0.000747702
-0.000304086
-0.000691419
-0.000331766
-0.000629138
-0.000350986
-0.00056221
-0.000360731
-0.000492275
-0.000360338
-0.000421213
-0.000349602
-0.000351045
-0.000328858
-0.000283809
-0.000299014
-0.000221422
-0.00026154
-0.000165536
-0.000218396
-0.000117411
-0.000171908
-7.78282e-05
-0.000124619
-4.70429e-05
-7.91445e-05
-2.47809e-05
-3.80508e-05
-1.02706e-05
-3.79847e-06
-2.29352e-06
2.12601e-05
7.48487e-07
3.48185e-05
7.82361e-07
3.45149e-05
1.78102e-05
-6.97396e-06
2.17743e-05
-2.46371e-05
6.31564e-05
-5.03274e-05
0.000100672
-8.21252e-05
0.000134016
-0.000118786
0.000163911
-0.000159573
0.000191303
-0.00020406
0.000216945
-0.000251955
0.000241214
-0.000302964
0.000264079
-0.000356715
0.000285163
-0.000412716
0.000303842
-0.000470356
0.000319358
-0.000528926
0.000330907
-0.000587647
0.000337727
-0.000645704
0.000339155
-0.000702277
0.000334668
-0.000756563
0.000323908
-0.00080779
0.000306691
-0.000855227
0.000283007
-0.000898184
0.000253011
-0.000936015
0.000217011
-0.00096811
0.00017546
-0.000993896
0.000128944
-0.00101283
7.81772e-05
-0.00102442
2.39981e-05
-0.00102817
-3.26329e-05
-0.00102366
-9.06077e-05
-0.00101052
-0.00014871
-0.000988445
-0.000205573
-0.000957269
-0.000259704
-0.000916977
-0.000309499
-0.00086778
-0.000353283
-0.000810175
-0.000389371
-0.000744999
-0.000416163
-0.000673472
-0.000432258
-0.000597208
-0.000436602
-0.000518178
-0.000428632
-0.00043863
-0.000408406
-0.00036095
-0.000376693
-0.000287495
-0.000334995
-0.0002204
-0.000285492
-0.000161401
-0.000230906
-0.000111703
-0.000174318
-7.18884e-05
-0.000118959
-4.19078e-05
-6.80314e-05
-2.11096e-05
-2.45967e-05
-8.31052e-06
8.46098e-06
-1.88815e-06
2.83961e-05
1.33662e-07
3.24931e-05
1.79438e-05
-8.20262e-06
2.99769e-05
-2.86595e-05
8.36132e-05
-5.80562e-05
0.000130068
-9.40534e-05
0.000170013
-0.00013516
0.000205018
-0.000180503
0.000236647
-0.000229584
0.000266026
-0.000282059
0.000293689
-0.000337594
0.000319614
-0.000395773
0.000343342
-0.000456067
0.000364137
-0.000517838
0.000381129
-0.000580362
0.00039343
-0.000642861
0.000400226
-0.000704538
0.000400832
-0.0007646
0.000394729
-0.000822275
0.000381583
-0.000876829
0.000361244
-0.000927563
0.000333742
-0.000973825
0.000299272
-0.001015
0.000258184
-0.00105051
0.000210968
-0.00107981
0.000158243
-0.00110238
0.000100752
-0.00111773
3.93522e-05
-0.00112538
-2.49864e-05
-0.00112485
-9.11428e-05
-0.00111566
-0.000157891
-0.0010974
-0.000223838
-0.00106967
-0.000287431
-0.00103221
-0.000346958
-0.000984929
-0.000400566
-0.00092799
-0.000446311
-0.000861915
-0.000482238
-0.000787657
-0.000506515
-0.00070666
-0.000517598
-0.000620868
-0.000514424
-0.000532667
-0.000496607
-0.000444758
-0.000464602
-0.000359965
-0.000419789
-0.000280991
-0.000364466
-0.000210178
-0.000301719
-0.000149294
-0.000235203
-9.9389e-05
-0.000168863
-6.0746e-05
-0.000106674
-3.29049e-05
-5.24378e-05
-1.47537e-05
-9.69014e-06
-4.64339e-06
1.82857e-05
-5.15165e-07
2.83648e-05
1.74286e-05
-9.34348e-06
3.93203e-05
-3.23761e-05
0.000106646
-6.51689e-05
0.000162861
-0.000104989
0.000209834
-0.000150113
0.000250142
-0.000199539
0.000286072
-0.000252691
0.000319178
-0.000309178
0.000350176
-0.000368621
0.000379057
-0.000430568
0.000405288
-0.000494459
0.000428027
-0.000559636
0.000446305
-0.000625369
0.000459163
-0.000690889
0.000465746
-0.000755414
0.000465357
-0.000818174
0.000457489
-0.000878427
0.000441836
-0.000935468
0.000418286
-0.000988638
0.000386912
-0.00103733
0.00034796
-0.00108097
0.00030183
-0.00111906
0.000249059
-0.00115113
0.00019031
-0.00117673
0.000126353
-0.00119543
5.80574e-05
-0.00120681
-1.36148e-05
-0.00121038
-8.75709e-05
-0.00120565
-0.000162621
-0.00119207
-0.000237412
-0.0011691
-0.000310408
-0.00113618
-0.00037987
-0.0010929
-0.000443849
-0.00103901
-0.000500201
-0.000974597
-0.000546651
-0.000900193
-0.00058092
-0.000816894
-0.000600898
-0.000726432
-0.000604886
-0.000631176
-0.000591862
-0.00053404
-0.000561738
-0.000438281
-0.000515548
-0.000347226
-0.000455521
-0.000263941
-0.000385004
-0.000190928
-0.000308216
-0.000129883
-0.000229908
-8.15777e-05
-0.00015498
-4.58586e-05
-8.8157e-05
-2.17444e-05
-3.38043e-05
-7.57706e-06
4.11836e-06
-1.18216e-06
2.19699e-05
1.62465e-05
-1.0349e-05
4.96693e-05
-3.56449e-05
0.000131941
-7.14125e-05
0.000198629
-0.000114566
0.000252987
-0.000163168
0.000298743
-0.000216092
0.000338997
-0.000272689
0.000375775
-0.000332513
0.00041
-0.000395145
0.000441689
-0.000460095
0.000470239
-0.000526779
0.000494711
-0.000594521
0.000514048
-0.000662589
0.000527231
-0.000730215
0.000533372
-0.00079663
0.000531771
-0.000861079
0.000521938
-0.000922841
0.000503599
-0.000981243
0.000476688
-0.00103567
0.000441338
-0.00108557
0.000397862
-0.00113047
0.000346731
-0.00116996
0.000288552
-0.0012037
0.000224043
-0.00123135
0.00015401
-0.00125263
7.93321e-05
-0.00126719
9.50018e-07
-0.00127464
-8.01179e-05
-0.00127451
-0.000162755
-0.0012662
-0.00024572
-0.00124903
-0.000327582
-0.00122222
-0.000406678
-0.00118501
-0.000481065
-0.0011367
-0.000548505
-0.00107686
-0.000606489
-0.00100546
-0.000652324
-0.000923041
-0.000683315
-0.000830905
-0.000697022
-0.000731175
-0.000691593
-0.000626779
-0.000666134
-0.000521295
-0.000621032
-0.000418648
-0.000558168
-0.000322719
-0.000480933
-0.000236911
-0.000394025
-0.000163779
-0.000303041
-0.000104795
-0.000213963
-6.02797e-05
-0.000132672
-2.94878e-05
-6.45962e-05
-1.07951e-05
-1.45743e-05
-1.90039e-06
1.30751e-05
1.43461e-05
-1.11734e-05
6.08427e-05
-3.83323e-05
0.0001591
-7.65526e-05
0.000236849
-0.000122449
0.000298883
-0.000173892
0.000350187
-0.000229638
0.000394743
-0.000288961
0.000435098
-0.00035136
0.000472399
-0.00041637
0.000506699
-0.000483469
0.000537337
-0.000552044
0.000563286
-0.000621406
0.00058341
-0.000690811
0.000596636
-0.000759491
0.000602052
-0.000826676
0.000598957
-0.000891622
0.000586884
-0.000953627
0.000565603
-0.00101205
0.000535113
-0.00106634
0.000495627
-0.00111603
0.000447553
-0.00116076
0.00039146
-0.00120026
0.00032805
-0.00123433
0.000258117
-0.00126284
0.000182514
-0.00128563
0.000102127
-0.00130254
1.7862e-05
-0.0013133
-6.93601e-05
-0.00131752
-0.000158541
-0.00131462
-0.000248613
-0.00130387
-0.000338334
-0.00128433
-0.00042622
-0.00125493
-0.000510464
-0.00121456
-0.000588871
-0.00116223
-0.000658826
-0.00109721
-0.000717336
-0.00101936
-0.000761165
-0.000929293
-0.000787092
-0.000828598
-0.000792288
-0.000719943
-0.000774788
-0.000606995
-0.00073398
-0.000494154
-0.000671008
-0.000386116
-0.000588972
-0.000287317
-0.000492824
-0.000201397
-0.00038896
-0.000130787
-0.000284574
-7.65112e-05
-0.000186948
-3.82269e-05
-0.000102881
-1.4428e-05
-3.83732e-05
-2.7118e-06
1.35893e-06
1.16343e-05
-1.17757e-05
7.26183e-05
-4.03198e-05
0.000187644
-8.03834e-05
0.000276912
-0.000128346
0.000346846
-0.000181915
0.000403755
-0.000239732
0.000452559
-0.00030099
0.000496355
-0.000365128
0.000536538
-0.000431638
0.000573208
-0.000499958
0.000605657
-0.00056945
0.000632778
-0.000639404
0.000653364
-0.000709061
0.000666293
-0.000777642
0.000670633
-0.000844376
0.000665691
-0.000908524
0.000651032
-0.000969409
0.000626488
-0.00102644
0.000592143
-0.00107913
0.000548323
-0.00112714
0.00049556
-0.00117024
0.000434554
-0.00120831
0.000366126
-0.00124136
0.000291164
-0.00126942
0.000210578
-0.00129256
0.000125263
-0.00131077
3.60784e-05
-0.00132398
-5.61564e-05
-0.00133191
-0.000150606
-0.00133411
-0.000246415
-0.00132985
-0.000342596
-0.00131812
-0.000437941
-0.00129768
-0.000530904
-0.00126707
-0.000619487
-0.00122475
-0.000701145
-0.00116933
-0.000772754
-0.00109982
-0.000830674
-0.00101595
-0.000870961
-0.000918498
-0.000889744
-0.000809512
-0.000883775
-0.000692411
-0.000851081
-0.000571811
-0.000791609
-0.000453099
-0.000707684
-0.000341794
-0.000604129
-0.000242811
-0.000487942
-0.000159823
-0.000367562
-9.4852e-05
-0.000251919
-4.81941e-05
-0.000149538
-1.86095e-05
-6.79579e-05
-3.65852e-06
-1.3592e-05
7.97577e-06
-1.21221e-05
8.47405e-05
-4.15101e-05
0.000217032
-8.27377e-05
0.00031814
-0.000132025
0.000396133
-0.000186942
0.000458672
-0.000246021
0.000511638
-0.000308371
0.000558705
-0.000373367
0.000601534
-0.00044045
0.000640291
-0.000509021
0.000674228
-0.000578411
0.000702168
-0.000647886
0.000722839
-0.00071667
0.000735077
-0.000783971
0.000737934
-0.000849014
0.000730734
-0.000911073
0.000713092
-0.000969506
0.000684921
-0.00102379
0.000646424
-0.00107353
0.000598067
-0.00111851
0.00054054
-0.00115865
0.000474698
-0.00119403
0.000401502
-0.00122482
0.000321949
-0.00125125
0.000237012
-0.00127358
0.000147596
-0.00129202
5.45132e-05
-0.00130665
-4.15255e-05
-0.00131739
-0.000139864
-0.00132393
-0.000239876
-0.00132565
-0.000340873
-0.0013216
-0.000441989
-0.00131046
-0.000542043
-0.00129057
-0.000639382
-0.00125999
-0.000731723
-0.00121671
-0.000816032
-0.0011589
-0.000888486
-0.00108527
-0.000944586
-0.000995535
-0.000979483
-0.000890767
-0.000988542
-0.000773721
-0.000968127
-0.00064883
-0.000916499
-0.000521897
-0.000834616
-0.000399425
-0.000726601
-0.000287716
-0.000599651
-0.00019195
-0.000463329
-0.000115486
-0.000328382
-5.95705e-05
-0.000205454
-2.34535e-05
-0.000104075
-4.77825e-06
-3.22673e-05
3.19752e-06
-1.21884e-05
9.69289e-05
-4.1833e-05
0.000246677
-8.34943e-05
0.000359801
-0.000133316
0.000445954
-0.000188761
0.000514117
-0.000248259
0.000571136
-0.00031083
0.000621276
-0.000375779
0.000666483
-0.000442492
0.000707004
-0.000510331
0.000742067
-0.000578596
0.000770434
-0.00064653
0.000790774
-0.000713339
0.000801886
-0.000778222
0.000802817
-0.000840409
0.000792921
-0.0008992
0.000771884
-0.000954007
0.000739728
-0.00100439
0.000696802
-0.00105006
0.000643744
-0.00109095
0.000581425
-0.00112713
0.000510876
-0.00115883
0.000433209
-0.00118641
0.000349533
-0.00121029
0.000260886
-0.00123088
0.000168186
-0.00124856
7.21933e-05
-0.0012636
-2.6482e-05
-0.0012761
-0.00012736
-0.00128593
-0.000230045
-0.00129266
-0.000334149
-0.00129547
-0.000439179
-0.00129313
-0.000544385
-0.00128393
-0.000648575
-0.00126575
-0.000749905
-0.00123611
-0.00084567
-0.00119245
-0.000932146
-0.00113248
-0.00100456
-0.00105466
-0.0010573
-0.000958819
-0.00108439
-0.000846588
-0.00108036
-0.000721732
-0.00104136
-0.000590025
-0.000966323
-0.000458681
-0.000857946
-0.000335351
-0.000722981
-0.000226919
-0.00057176
-0.00013843
-0.000416872
-7.2455e-05
-0.000271429
-2.90389e-05
-0.000147491
-6.10179e-06
-5.52044e-05
-2.90428e-06
-1.19616e-05
0.00010889
-4.1249e-05
0.000275964
-8.25836e-05
0.000401136
-0.000132122
0.000495492
-0.000187257
0.000569252
-0.000246318
0.000630198
-0.000308233
0.000683191
-0.000372231
0.000730481
-0.000437643
0.000772416
-0.000503792
0.000808216
-0.000569949
0.000836591
-0.000635338
0.000856162
-0.000699153
0.000865701
-0.000760598
0.000864262
-0.000818924
0.000851247
-0.000873476
0.000826436
-0.000923737
0.000789989
-0.000969361
0.000742427
-0.0010102
0.000684583
-0.0010463
0.000617524
-0.00107789
0.000542467
-0.00110535
0.000460674
-0.00112918
0.000373363
-0.00114993
0.000281632
-0.00116815
0.000186403
-0.00118435
8.83928e-05
-0.00119894
-1.18846e-05
-0.0012122
-0.000114106
-0.00122416
-0.000218078
-0.00123462
-0.000323696
-0.00124297
-0.000430825
-0.0012482
-0.000539159
-0.00124874
-0.000648031
-0.00124247
-0.000756171
-0.00122672
-0.00086142
-0.00119841
-0.000960457
-0.00115438
-0.0010486
-0.00109188
-0.0011198
-0.00100926
-0.00116701
-0.00090667
-0.00118294
-0.000786678
-0.00116135
-0.000654459
-0.00109854
-0.000517472
-0.000994932
-0.000384488
-0.000855966
-0.000264155
-0.000692093
-0.000163503
-0.000517523
-8.68448e-05
-0.000348087
-3.54039e-05
-0.000198932
-7.64966e-06
-8.29587e-05
-1.05539e-05
-1.14408e-05
0.000120331
-3.97518e-05
0.000304275
-7.99911e-05
0.000441375
-0.000128423
0.000543924
-0.000182407
0.000623237
-0.000240184
0.000687975
-0.000300584
0.000743591
-0.000362758
0.000792655
-0.000425982
0.00083564
-0.000489541
0.000871775
-0.000552686
0.000899736
-0.00061463
0.000918106
-0.000674573
0.000925644
-0.000731737
0.000921427
-0.000785417
0.000904927
-0.000835023
0.000876042
-0.000880128
0.000835094
-0.000920498
0.000782798
-0.00095611
0.000720194
-0.000987138
0.000648553
-0.00101394
0.00056927
-0.00103702
0.000483749
-0.00105695
0.000393302
-0.00107439
0.000299073
-0.00108998
0.000201984
-0.00110429
0.000102708
-0.00111785
1.67271e-06
-0.00113103
-0.000100923
-0.00114405
-0.000205058
-0.00115689
-0.000310856
-0.00116923
-0.000418491
-0.00118032
-0.000528067
-0.0011889
-0.000639446
-0.00119308
-0.000751994
-0.00119024
-0.000864262
-0.00117709
-0.000973603
-0.00114988
-0.00107581
-0.00110482
-0.00116486
-0.00103878
-0.00123305
-0.000950186
-0.00127154
-0.000839917
-0.00127162
-0.000711931
-0.00122653
-0.000573309
-0.00113355
-0.000433491
-0.000995783
-0.000302758
-0.000822826
-0.000190316
-0.000629965
-0.000102627
-0.000435776
-4.25415e-05
-0.000259017
-9.43063e-06
-0.00011607
-1.99846e-05
-1.06379e-05
0.000130969
-3.73687e-05
0.000331006
-7.57581e-05
0.000479764
-0.000122274
0.00059044
-0.000174288
0.00067525
-0.000229961
0.000743648
-0.000288028
0.000801658
-0.000347559
0.000852187
-0.000407777
0.000895857
-0.000467935
0.000931934
-0.000527275
0.000959076
-0.000585016
0.000975847
-0.000640379
0.000981008
-0.000692631
0.000973679
-0.000741129
0.000953425
-0.00078537
0.000920283
-0.000825031
0.000874755
-0.000859995
0.000817763
-0.000890356
0.000750555
-0.000916404
0.000674601
-0.000938593
0.000591459
-0.0009575
0.000502655
-0.000973772
0.000409574
-0.000988087
0.000313388
-0.00100111
0.000215007
-0.00101346
0.00011506
-0.00102569
1.3903e-05
-0.00103825
-8.8361e-05
-0.00105147
-0.00019184
-0.00106551
-0.000296823
-0.00108028
-0.00040372
-0.00109537
-0.000512972
-0.00110991
-0.000624909
-0.00112238
-0.000739526
-0.00113048
-0.000856157
-0.00113106
-0.00097303
-0.0011201
-0.00108676
-0.00109311
-0.00119185
-0.00104567
-0.00128049
-0.000974433
-0.00134278
-0.000878258
-0.00136779
-0.000759297
-0.00134549
-0.000623534
-0.00126932
-0.000480438
-0.00113888
-0.000341554
-0.00096171
-0.000218285
-0.000753235
-0.00011958
-0.000534481
-5.03986e-05
-0.000328199
-1.14423e-05
-0.000155026
-3.14269e-05
-9.57627e-06
0.000140545
-3.41595e-05
0.000355589
-6.99794e-05
0.000515584
-0.000113805
0.000634265
-0.000163065
0.000724511
-0.000215862
0.000796445
-0.000270836
0.000856633
-0.000326979
0.00090833
-0.000383462
0.00095234
-0.000439519
0.000987991
-0.000494395
0.00101395
-0.000547333
0.00102879
-0.0005976
0.00103128
-0.000644527
0.00102061
-0.000687556
0.000996454
-0.000726284
0.000959011
-0.000760501
0.000908973
-0.000790204
0.000847465
-0.000815591
0.000775943
-0.000837043
0.000696053
-0.000855079
0.000609496
-0.000870315
0.000517891
-0.000883413
0.000422673
-0.000895043
0.000325019
-0.000905851
0.000225815
-0.000916436
0.000125645
-0.000927336
2.48029e-05
-0.000939022
-7.66749e-05
-0.00095188
-0.000178982
-0.000966193
-0.000282509
-0.000982092
-0.000387821
-0.000999468
-0.000495597
-0.00101784
-0.000606536
-0.00103618
-0.000721186
-0.00105269
-0.000839643
-0.00106462
-0.000961106
-0.00106811
-0.00108326
-0.00105835
-0.00120161
-0.00103001
-0.00130883
-0.000978141
-0.00139465
-0.000899478
-0.00144645
-0.000793909
-0.00145106
-0.000665608
-0.00139762
-0.000523293
-0.00128119
-0.000379179
-0.00110582
-0.000246658
-0.000885756
-0.00013738
-0.000643758
-5.88781e-05
-0.000406701
-1.36728e-05
-0.000200231
-4.50998e-05
-8.29004e-06
0.000148836
-3.02137e-05
0.000377513
-6.27996e-05
0.00054817
-0.000103211
0.000674676
-0.00014899
0.00077029
-0.000198199
0.000845655
-0.000249394
0.000907828
-0.00030149
0.000960426
-0.000353614
0.00100446
-0.000404991
0.00103937
-0.000454885
0.00106385
-0.000502585
0.00107649
-0.000547423
0.00107611
-0.000588815
0.001062
-0.000626303
0.00103394
-0.000659597
0.000992305
-0.000688596
0.000937972
-0.000713401
0.000872271
-0.000734298
0.00079684
-0.000751727
0.000713482
-0.000766242
0.00062401
-0.00077846
0.000530109
-0.000789022
0.000433235
-0.000798554
0.000334551
-0.000807645
0.000234906
-0.000816835
0.000134835
-0.000826615
3.4583e-05
-0.000837429
-6.58612e-05
-0.000849675
-0.000166736
-0.000863704
-0.000268481
-0.00087979
-0.000371735
-0.000898071
-0.000477316
-0.000918434
-0.000586173
-0.000940342
-0.000699277
-0.000962592
-0.000817393
-0.000983032
-0.000940666
-0.000998305
-0.00106799
-0.00100373
-0.00119618
-0.000993547
-0.00131902
-0.000961576
-0.00142662
-0.00090257
-0.00150546
-0.000813919
-0.00153971
-0.000697383
-0.00151416
-0.000560105
-0.00141847
-0.000414191
-0.00125174
-0.000274571
-0.00102538
-0.00015562
-0.00076271
-6.78429e-05
-0.000494478
-1.60999e-05
-0.000251974
-6.11997e-05
-6.82203e-06
0.000155658
-2.56465e-05
0.000396337
-5.4407e-05
0.000576931
-9.0749e-05
0.000711018
-0.000132384
0.000811925
-0.000177367
0.000890638
-0.00022418
0.00095464
-0.000271667
0.00100791
-0.000318918
0.00105172
-0.00036516
0.00108561
-0.000409694
0.00110838
-0.000451871
0.00111866
-0.000491108
0.00111535
-0.000526923
0.00109781
-0.000558969
0.00106599
-0.000587067
0.0010204
-0.000611223
0.000962128
-0.000631623
0.000892672
-0.000648618
0.000813834
-0.000662678
0.000727543
-0.00067436
0.000635692
-0.000684255
0.000540004
-0.000692951
0.00044193
-0.000701005
0.000342605
-0.000708927
0.000242828
-0.000717177
0.000143085
-0.000726172
4.35781e-05
-0.0007363
-5.57329e-05
-0.000747933
-0.000155102
-0.000761437
-0.000254977
-0.000777167
-0.000356006
-0.00079543
-0.000459053
-0.000816403
-0.000565199
-0.000839984
-0.000675696
-0.000865558
-0.00079182
-0.000891678
-0.000914546
-0.000915705
-0.00104397
-0.000933499
-0.00117838
-0.000939353
-0.00131316
-0.000926416
-0.00143955
-0.00088781
-0.00154407
-0.000818464
-0.00160905
-0.00071733
-0.00161529
-0.000589205
-0.0015466
-0.0004452
-0.00139574
-0.000301111
-0.00116947
-0.000173833
-0.000889987
-7.71223e-05
-0.000591189
-1.86919e-05
-0.000310404
-7.98915e-05
-5.2215e-06
0.000160879
-2.05933e-05
0.000411709
-4.50264e-05
0.000601364
-7.67257e-05
0.000742718
-0.000113633
0.000848832
-0.000153831
0.000930836
-0.000195746
0.000996555
-0.000238159
0.00105033
-0.000280132
0.00109369
-0.000320903
0.00112638
-0.000359822
0.0011473
-0.000396319
0.00115516
-0.000429913
0.00114894
-0.000460232
0.00112813
-0.000487045
0.0010928
-0.00051028
0.00104364
-0.000530035
0.000981884
-0.000546566
0.000909203
-0.000560259
0.000827526
-0.000571591
0.000738876
-0.000581094
0.000645195
-0.000589307
0.000548217
-0.000596748
0.000449371
-0.00060389
0.000349747
-0.000611155
0.000250092
-0.000618912
0.000150843
-0.000627496
5.21622e-05
-0.000637224
-4.60054e-05
-0.000648415
-0.000143911
-0.000661413
-0.000241979
-0.000676597
-0.000340822
-0.000694365
-0.000441284
-0.000715092
-0.000544472
-0.000739011
-0.000651778
-0.000766015
-0.000764815
-0.000795352
-0.000885209
-0.000825206
-0.00101411
-0.000852247
-0.00115134