/*--------------------------------*- C++ -*----------------------------------*\
  =========                 |
  \\      /  F ield         | OpenFOAM: The Open Source CFD Toolbox
   \\    /   O peration     | Website:  https://openfoam.org
    \\  /    A nd           | Version:  7
     \\/     M anipulation  |
\*---------------------------------------------------------------------------*/
FoamFile
{
    version     2.0;
    format      ascii;
    class       volVectorField;
    location    "250";
    object      U;
}
// * * * * * * * * * * * * * * * * * * * * * * * * * * * * * * * * * * * * * //

dimensions      [0 1 -1 0 0 0 0];

internalField   nonuniform List<vector> 
2500
(
(0.000109133 -0.000112157 0)
(0.000486595 -0.000151482 0)
(0.000831717 -0.000126308 0)
(0.000996783 -7.90494e-05 0)
(0.000906179 -3.11243e-05 0)
(0.000555304 1.1625e-05 0)
(-3.82618e-05 4.82971e-05 0)
(-0.000854713 8.02732e-05 0)
(-0.00187876 0.000109719 0)
(-0.00310094 0.000138613 0)
(-0.00451609 0.000168298 0)
(-0.00612042 0.000199368 0)
(-0.00790821 0.000231699 0)
(-0.00986879 0.000264538 0)
(-0.011984 0.000296598 0)
(-0.0142261 0.000326139 0)
(-0.0165567 0.000351053 0)
(-0.0189258 0.000368959 0)
(-0.021272 0.000377322 0)
(-0.0235238 0.000373614 0)
(-0.0256009 0.000355524 0)
(-0.0274177 0.000321197 0)
(-0.0288867 0.000269508 0)
(-0.0299238 0.000200332 0)
(-0.0304531 0.000114809 0)
(-0.0304133 1.54865e-05 0)
(-0.0297631 -9.37344e-05 0)
(-0.0284861 -0.000207543 0)
(-0.0265948 -0.000319583 0)
(-0.024133 -0.000422868 0)
(-0.0211755 -0.000510347 0)
(-0.0178265 -0.000575577 0)
(-0.014214 -0.000613422 0)
(-0.0104833 -0.000620669 0)
(-0.00678759 -0.000596466 0)
(-0.00327833 -0.000542475 0)
(-9.46507e-05 -0.000462678 0)
(0.00264571 -0.000363141 0)
(0.00485351 -0.00025137 0)
(0.00647234 -0.000135096 0)
(0.0074803 -2.14038e-05 0)
(0.00788872 8.37264e-05 0)
(0.00773857 0.000175755 0)
(0.00709626 0.000251374 0)
(0.00605066 0.000307592 0)
(0.00471352 0.000340237 0)
(0.0032253 0.000342141 0)
(0.0017735 0.0003005 0)
(0.000624752 0.000191858 0)
(2.97435e-05 2.97208e-05 0)
(0.000154769 -0.000496755 0)
(0.00068771 -0.00069205 0)
(0.000979045 -0.000438662 0)
(0.000777909 1.06879e-05 0)
(-5.11911e-05 0.000515282 0)
(-0.00152948 0.00100976 0)
(-0.00363407 0.00147217 0)
(-0.00633176 0.00190275 0)
(-0.00959247 0.00231008 0)
(-0.0133923 0.00270283 0)
(-0.0177106 0.00308549 0)
(-0.0225238 0.00345673 0)
(-0.027799 0.00380918 0)
(-0.0334873 0.00413015 0)
(-0.0395187 0.00440263 0)
(-0.0457984 0.00460653 0)
(-0.0522053 0.00472003 0)
(-0.0585921 0.00472101 0)
(-0.0647875 0.0045887 0)
(-0.070601 0.0043055 0)
(-0.0758288 0.00385875 0)
(-0.0802631 0.00324271 0)
(-0.0837015 0.00246015 0)
(-0.0859585 0.00152379 0)
(-0.0868771 0.000457112 0)
(-0.0863405 -0.00070555 0)
(-0.0842826 -0.00192013 0)
(-0.0806955 -0.00313428 0)
(-0.0756352 -0.0042904 0)
(-0.069224 -0.00532907 0)
(-0.0616482 -0.00619321 0)
(-0.0531524 -0.0068326 0)
(-0.0440294 -0.00720823 0)
(-0.0346061 -0.00729617 0)
(-0.0252264 -0.00709019 0)
(-0.016232 -0.00660296 0)
(-0.00794292 -0.00586534 0)
(-0.000638675 -0.00492401 0)
(0.00545771 -0.00383758 0)
(0.0101913 -0.00267097 0)
(0.013482 -0.00148956 0)
(0.0153257 -0.000354806 0)
(0.0157916 0.000678515 0)
(0.0150159 0.00156247 0)
(0.0131979 0.00225149 0)
(0.0105975 0.00269499 0)
(0.00753925 0.00282749 0)
(0.00443229 0.00256178 0)
(0.00181757 0.00180951 0)
(0.000193464 0.000626752 0)
(0.000129908 -0.000842477 0)
(0.000377663 -0.000973991 0)
(6.56451e-05 -0.000208713 0)
(-0.00105417 0.000959502 0)
(-0.00310822 0.00225505 0)
(-0.00611722 0.00354245 0)
(-0.0100575 0.0047705 0)
(-0.0148926 0.00593288 0)
(-0.0205856 0.00704061 0)
(-0.027101 0.00810466 0)
(-0.0343998 0.00912659 0)
(-0.0424314 0.0100947 0)
(-0.0511249 0.0109836 0)
(-0.0603818 0.0117563 0)
(-0.0700701 0.0123665 0)
(-0.0800213 0.0127626 0)
(-0.0900307 0.012891 0)
(-0.0998601 0.0127006 0)
(-0.109244 0.0121465 0)
(-0.117897 0.0111949 0)
(-0.125527 0.00982682 0)
(-0.131847 0.00804182 0)
(-0.136588 0.00586093 0)
(-0.139516 0.00332844 0)
(-0.140441 0.000512501 0)
(-0.139237 -0.00249609 0)
(-0.135845 -0.0055871 0)
(-0.130282 -0.00863574 0)
(-0.12265 -0.0115089 0)
(-0.113128 -0.0140725 0)
(-0.101977 -0.0161999 0)
(-0.0895274 -0.0177807 0)
(-0.0761675 -0.0187292 0)
(-0.0623302 -0.018992 0)
(-0.0484724 -0.0185536 0)
(-0.035053 -0.0174387 0)
(-0.0225096 -0.0157121 0)
(-0.0112357 -0.0134742 0)
(-0.00155887 -0.0108538 0)
(0.00627627 -0.0079984 0)
(0.0121208 -0.00506278 0)
(0.0159284 -0.00219847 0)
(0.0177566 0.000452743 0)
(0.0177628 0.00276092 0)
(0.0161997 0.00460247 0)
(0.0134114 0.00584894 0)
(0.0098297 0.00635268 0)
(0.00598886 0.00593868 0)
(0.0025902 0.00443083 0)
(0.000303684 0.00178663 0)
(6.76939e-05 -0.000954064 0)
(-0.00025823 -0.000620989 0)
(-0.00156552 0.00100222 0)
(-0.00402896 0.00320252 0)
(-0.00770891 0.00558463 0)
(-0.0126004 0.00795235 0)
(-0.0186703 0.0102292 0)
(-0.025878 0.0124021 0)
(-0.0341813 0.0144803 0)
(-0.0435334 0.0164701 0)
(-0.0538747 0.0183608 0)
(-0.0651223 0.020119 0)
(-0.0771614 0.0216896 0)
(-0.0898375 0.0229988 0)
(-0.102953 0.0239602 0)
(-0.116266 0.0244814 0)
(-0.129493 0.0244712 0)
(-0.142319 0.023847 0)
(-0.154403 0.0225422 0)
(-0.165394 0.0205128 0)
(-0.174943 0.0177439 0)
(-0.182719 0.0142539 0)
(-0.188425 0.0100974 0)
(-0.191809 0.00536682 0)
(-0.19268 0.000191419 0)
(-0.190917 -0.00526596 0)
(-0.186475 -0.0108149 0)
(-0.179396 -0.0162463 0)
(-0.169805 -0.0213408 0)
(-0.157913 -0.02588 0)
(-0.144017 -0.0296588 0)
(-0.128489 -0.0324978 0)
(-0.11177 -0.0342558 0)
(-0.0943495 -0.0348419 0)
(-0.0767546 -0.0342236 0)
(-0.059522 -0.0324325 0)
(-0.0431759 -0.0295647 0)
(-0.0282011 -0.0257764 0)
(-0.0150176 -0.0212739 0)
(-0.00395764 -0.0163001 0)
(0.00475254 -0.0111171 0)
(0.0110052 -0.00599194 0)
(0.0148187 -0.0011811 0)
(0.0163371 0.00307311 0)
(0.0158256 0.00654031 0)
(0.0136663 0.00898837 0)
(0.0103493 0.0101669 0)
(0.00648474 0.0097949 0)
(0.00288219 0.00757397 0)
(0.00034472 0.00326089 0)
(-1.42966e-05 -0.000676079 0)
(-0.00111119 0.000679749 0)
(-0.00370194 0.00356712 0)
(-0.00783436 0.00711087 0)
(-0.0134561 0.0108366 0)
(-0.0205129 0.014515 0)
(-0.0289511 0.01806 0)
(-0.0387209 0.0214565 0)
(-0.049773 0.0247096 0)
(-0.0620472 0.0278127 0)
(-0.0754606 0.0307313 0)
(-0.0898949 0.0333987 0)
(-0.105188 0.0357177 0)
(-0.121129 0.0375682 0)
(-0.137456 0.0388167 0)
(-0.15386 0.0393268 0)
(-0.169995 0.0389702 0)
(-0.185485 0.0376381 0)
(-0.199938 0.0352505 0)
(-0.212964 0.0317649 0)
(-0.224186 0.0271831 0)
(-0.233258 0.0215554 0)
(-0.239877 0.014982 0)
(-0.243791 0.00761307 0)
(-0.244813 -0.000354419 0)
(-0.242827 -0.00868142 0)
(-0.237793 -0.0170959 0)
(-0.229753 -0.0253036 0)
(-0.218831 -0.0329984 0)
(-0.205239 -0.0398759 0)
(-0.189275 -0.045648 0)
(-0.171321 -0.0500599 0)
(-0.151835 -0.0529063 0)
(-0.131341 -0.0540469 0)
(-0.110411 -0.0534206 0)
(-0.0896433 -0.0510537 0)
(-0.0696392 -0.0470637 0)
(-0.0509703 -0.0416561 0)
(-0.0341503 -0.0351129 0)
(-0.0196059 -0.0277763 0)
(-0.00765218 -0.0200267 0)
(0.00152661 -0.0122606 0)
(0.00788887 -0.00487153 0)
(0.0115413 0.00176283 0)
(0.0127348 0.00728147 0)
(0.0118598 0.0113269 0)
(0.00943613 0.0135268 0)
(0.00612144 0.0134746 0)
(0.002793 0.0107214 0)
(0.000341322 0.00478576 0)
(-0.000110702 8.50838e-05 0)
(-0.00211735 0.00313863 0)
(-0.0062018 0.00775174 0)
(-0.0122426 0.0129614 0)
(-0.0200385 0.0182705 0)
(-0.0294674 0.0234562 0)
(-0.0404446 0.0284461 0)
(-0.0529059 0.0332326 0)
(-0.0667908 0.0378151 0)
(-0.0820235 0.0421663 0)
(-0.0984948 0.0462171 0)
(-0.11605 0.0498553 0)
(-0.134479 0.0529324 0)
(-0.153518 0.0552755 0)
(-0.172851 0.0567013 0)
(-0.192114 0.0570316 0)
(-0.210916 0.0561075 0)
(-0.228841 0.0538029 0)
(-0.245472 0.0500361 0)
(-0.260405 0.0447781 0)
(-0.273256 0.038058 0)
(-0.283682 0.029966 0)
(-0.291381 0.0206528 0)
(-0.296106 0.0103272 0)
(-0.297668 -0.000748587 0)
(-0.295942 -0.0122642 0)
(-0.290871 -0.0238719 0)
(-0.282472 -0.0351966 0)
(-0.27084 -0.0458482 0)
(-0.256158 -0.0554349 0)
(-0.238697 -0.0635813 0)
(-0.218821 -0.0699472 0)
(-0.196985 -0.0742495 0)
(-0.173725 -0.0762825 0)
(-0.149648 -0.0759379 0)
(-0.125411 -0.073219 0)
(-0.101689 -0.0682494 0)
(-0.07915 -0.0612722 0)
(-0.0584119 -0.0526396 0)
(-0.0400109 -0.042794 0)
(-0.0243672 -0.0322414 0)
(-0.0117597 -0.0215223 0)
(-0.00230734 -0.0111841 0)
(0.00403942 -0.00176166 0)
(0.00749993 0.00622882 0)
(0.00845388 0.0122849 0)
(0.0074329 0.0158931 0)
(0.00512366 0.016504 0)
(0.00243771 0.013505 0)
(0.000311318 0.00618707 0)
(-0.000218343 0.0013951 0)
(-0.00323333 0.00690418 0)
(-0.00895762 0.0137437 0)
(-0.0170687 0.0209482 0)
(-0.0271906 0.0280654 0)
(-0.0391197 0.0349275 0)
(-0.052733 0.0415042 0)
(-0.0679468 0.0478075 0)
(-0.0846862 0.0538311 0)
(-0.102856 0.0595197 0)
(-0.122321 0.0647596 0)
(-0.142888 0.069384 0)
(-0.164305 0.0731867 0)
(-0.186264 0.0759396 0)
(-0.208404 0.0774125 0)
(-0.230327 0.0773916 0)
(-0.251613 0.075697 0)
(-0.271832 0.0721971 0)
(-0.290562 0.0668189 0)
(-0.3074 0.0595557 0)
(-0.321973 0.0504696 0)
(-0.333942 0.0396921 0)
(-0.343014 0.0274212 0)
(-0.348935 0.0139178 0)
(-0.351502 -0.000499474 0)
(-0.350567 -0.0154602 0)
(-0.346034 -0.03055 0)
(-0.337873 -0.0453206 0)
(-0.326128 -0.0593006 0)
(-0.310927 -0.0720099 0)
(-0.292489 -0.0829784 0)
(-0.271137 -0.0917685 0)
(-0.2473 -0.0980011 0)
(-0.221511 -0.101383 0)
(-0.194399 -0.101734 0)
(-0.166671 -0.0990111 0)
(-0.139085 -0.0933202 0)
(-0.112411 -0.084926 0)
(-0.0873898 -0.074241 0)
(-0.0646883 -0.0618065 0)
(-0.044856 -0.048261 0)
(-0.0282898 -0.0343032 0)
(-0.015208 -0.0206549 0)
(-0.00563598 -0.00803135 0)
(0.000596248 0.0028744 0)
(0.00384549 0.0113904 0)
(0.00464325 0.0168433 0)
(0.00369232 0.0185279 0)
(0.00191555 0.0156674 0)
(0.000268477 0.0073564 0)
(-0.000334434 0.00330171 0)
(-0.00442277 0.0120776 0)
(-0.0118756 0.021664 0)
(-0.0221467 0.0311885 0)
(-0.0346684 0.0403211 0)
(-0.049148 0.0490025 0)
(-0.0654194 0.0572767 0)
(-0.0833758 0.0651884 0)
(-0.102925 0.0727266 0)
(-0.123951 0.0798018 0)
(-0.14629 0.086248 0)
(-0.169716 0.0918381 0)
(-0.193942 0.0963057 0)
(-0.218623 0.0993701 0)
(-0.243373 0.10076 0)
(-0.267774 0.100237 0)
(-0.291399 0.0976089 0)
(-0.31382 0.0927501 0)
(-0.334625 0.0856041 0)
(-0.353423 0.0761904 0)
(-0.369855 0.0646035 0)
(-0.383591 0.0510115 0)
(-0.394335 0.0356513 0)
(-0.401826 0.0188247 0)
(-0.405837 0.000893586 0)
(-0.406181 -0.0177235 0)
(-0.402716 -0.0365575 0)
(-0.395352 -0.0550952 0)
(-0.384063 -0.072789 0)
(-0.368904 -0.08907 0)
(-0.350022 -0.103368 0)
(-0.327674 -0.115134 0)
(-0.302236 -0.123874 0)
(-0.274213 -0.129182 0)
(-0.244236 -0.130774 0)
(-0.21305 -0.128527 0)
(-0.181488 -0.122501 0)
(-0.15043 -0.112956 0)
(-0.120759 -0.100347 0)
(-0.093297 -0.0853085 0)
(-0.0687546 -0.0686179 0)
(-0.0476796 -0.0511474 0)
(-0.0304196 -0.0338164 0)
(-0.0171005 -0.0175478 0)
(-0.00762031 -0.00324025 0)
(-0.00165815 0.00823872 0)
(0.00130688 0.0160376 0)
(0.00198638 0.0192827 0)
(0.00130315 0.017037 0)
(0.000223012 0.00823287 0)
(-0.000455862 0.00583535 0)
(-0.00564949 0.018715 0)
(-0.0148642 0.0315701 0)
(-0.0273158 0.0437266 0)
(-0.0422366 0.0550606 0)
(-0.0592413 0.0656789 0)
(-0.0781189 0.0757325 0)
(-0.0987372 0.0853128 0)
(-0.120984 0.0944053 0)
(-0.144723 0.102882 0)
(-0.169762 0.110521 0)
(-0.195848 0.117031 0)
(-0.222665 0.122087 0)
(-0.249848 0.125363 0)
(-0.276996 0.126556 0)
(-0.30369 0.12541 0)
(-0.329508 0.121735 0)
(-0.354034 0.115415 0)
(-0.376875 0.106415 0)
(-0.397658 0.0947795 0)
(-0.416036 0.0806312 0)
(-0.431686 0.0641665 0)
(-0.44431 0.0456508 0)
(-0.453635 0.0254149 0)
(-0.45941 0.00385145 0)
(-0.461412 -0.0185859 0)
(-0.459453 -0.0413854 0)
(-0.453378 -0.0639804 0)
(-0.44309 -0.0857555 0)
(-0.428555 -0.106058 0)
(-0.409829 -0.124215 0)
(-0.387075 -0.139561 0)
(-0.360585 -0.151467 0)
(-0.3308 -0.159386 0)
(-0.298316 -0.162897 0)
(-0.263885 -0.161756 0)
(-0.228397 -0.155933 0)
(-0.192838 -0.145643 0)
(-0.158241 -0.131358 0)
(-0.125611 -0.11379 0)
(-0.0958576 -0.0938544 0)
(-0.0697224 -0.0726125 0)
(-0.0477252 -0.0512089 0)
(-0.0301293 -0.0308083 0)
(-0.0169289 -0.0125505 0)
(-0.00785822 0.00246955 0)
(-0.00241527 0.0131955 0)
(0.000114017 0.0185738 0)
(0.000652144 0.017507 0)
(0.000181512 0.00878995 0)
(-0.000578746 0.00900762 0)
(-0.00687456 0.0268272 0)
(-0.0178291 0.0434573 0)
(-0.0324146 0.0585363 0)
(-0.0496621 0.0722336 0)
(-0.0690948 0.084881 0)
(-0.0904561 0.0967693 0)
(-0.113587 0.10805 0)
(-0.138356 0.118708 0)
(-0.164602 0.128573 0)
(-0.192111 0.137365 0)
(-0.220608 0.144732 0)
(-0.249757 0.150295 0)
(-0.279184 0.15369 0)
(-0.308484 0.15459 0)
(-0.337246 0.152734 0)
(-0.365062 0.147939 0)
(-0.391536 0.140103 0)
(-0.416291 0.129213 0)
(-0.438972 0.115334 0)
(-0.459246 0.0986131 0)
(-0.476799 0.0792664 0)
(-0.491336 0.0575797 0)
(-0.502579 0.0339031 0)
(-0.510264 0.00864984 0)
(-0.514146 -0.0177036 0)
(-0.514003 -0.0446162 0)
(-0.509628 -0.0714837 0)
(-0.500851 -0.0976377 0)
(-0.487549 -0.122355 0)
(-0.46967 -0.14487 0)
(-0.447255 -0.164398 0)
(-0.420474 -0.180166 0)
(-0.389655 -0.191465 0)
(-0.355307 -0.197699 0)
(-0.318141 -0.198451 0)
(-0.279059 -0.193548 0)
(-0.239128 -0.183105 0)
(-0.199526 -0.167562 0)
(-0.161462 -0.147674 0)
(-0.12608 -0.124484 0)
(-0.0943684 -0.0992544 0)
(-0.0670776 -0.0733836 0)
(-0.0446613 -0.0483202 0)
(-0.027253 -0.0254917 0)
(-0.0146712 -0.00626333 0)
(-0.00644857 0.00806795 0)
(-0.0018711 0.0162472 0)
(-1.11124e-05 0.0170101 0)
(0.000147194 0.00902183 0)
(-0.000698392 0.0128092 0)
(-0.00805586 0.0363774 0)
(-0.0206724 0.0572595 0)
(-0.03728 0.0755235 0)
(-0.0567144 0.0917203 0)
(-0.0784108 0.106464 0)
(-0.102067 0.120217 0)
(-0.127498 0.133205 0)
(-0.154548 0.145411 0)
(-0.183038 0.156628 0)
(-0.212733 0.166515 0)
(-0.243339 0.174663 0)
(-0.274511 0.180648 0)
(-0.305869 0.184073 0)
(-0.337017 0.1846 0)
(-0.367552 0.181968 0)
(-0.397083 0.176003 0)
(-0.425231 0.166621 0)
(-0.451639 0.153827 0)
(-0.475967 0.137708 0)
(-0.497898 0.118428 0)
(-0.517136 0.0962227 0)
(-0.533401 0.0713932 0)
(-0.54643 0.0443038 0)
(-0.555967 0.0153806 0)
(-0.561768 -0.0148882 0)
(-0.563598 -0.0459483 0)
(-0.561221 -0.0771781 0)
(-0.554406 -0.10788 0)
(-0.542946 -0.137284 0)
(-0.526671 -0.164552 0)
(-0.505482 -0.188796 0)
(-0.479386 -0.209102 0)
(-0.448545 -0.224583 0)
(-0.413317 -0.234436 0)
(-0.374298 -0.238023 0)
(-0.332335 -0.234957 0)
(-0.288523 -0.22518 0)
(-0.244153 -0.209021 0)
(-0.200633 -0.187227 0)
(-0.159374 -0.160931 0)
(-0.121668 -0.131593 0)
(-0.0885635 -0.100892 0)
(-0.0607791 -0.0706097 0)
(-0.0386503 -0.0425207 0)
(-0.0221263 -0.0183205 0)
(-0.0108009 0.00040378 0)
(-0.00396746 0.0121585 0)
(-0.00068406 0.0154923 0)
(0.000120428 0.00893016 0)
(-0.000809492 0.017208 0)
(-0.00914913 0.0472806 0)
(-0.0232948 0.0728504 0)
(-0.0417508 0.0945298 0)
(-0.0631698 0.113336 0)
(-0.0869037 0.13022 0)
(-0.112606 0.145845 0)
(-0.140064 0.16052 0)
(-0.1691 0.174236 0)
(-0.199514 0.186744 0)
(-0.231053 0.19765 0)
(-0.263412 0.206492 0)
(-0.296238 0.212806 0)
(-0.329153 0.216174 0)
(-0.361765 0.216249 0)
(-0.393684 0.212775 0)
(-0.424531 0.20559 0)
(-0.453941 0.194629 0)
(-0.481574 0.179915 0)
(-0.507112 0.161558 0)
(-0.530261 0.139743 0)
(-0.550754 0.114725 0)
(-0.568348 0.0868232 0)
(-0.582815 0.0564156 0)
(-0.59394 0.0239353 0)
(-0.601504 -0.0101283 0)
(-0.605292 -0.0452246 0)
(-0.605063 -0.0807394 0)
(-0.600551 -0.115976 0)
(-0.591478 -0.150153 0)
(-0.577564 -0.182396 0)
(-0.558557 -0.211742 0)
(-0.534275 -0.237159 0)
(-0.504664 -0.257585 0)
(-0.469863 -0.27199 0)
(-0.430267 -0.27947 0)
(-0.386576 -0.279351 0)
(-0.339822 -0.271308 0)
(-0.291343 -0.255464 0)
(-0.242709 -0.232455 0)
(-0.195606 -0.203443 0)
(-0.151671 -0.170052 0)
(-0.112332 -0.134254 0)
(-0.0786599 -0.0982131 0)
(-0.0512818 -0.0641255 0)
(-0.030346 -0.0340972 0)
(-0.0155518 -0.0100776 0)
(-0.00621825 0.0061432 0)
(-0.00138409 0.0128883 0)
(9.91939e-05 0.00851229 0)
(-0.000906456 0.022148 0)
(-0.0101099 0.0594037 0)
(-0.0255989 0.090046 0)
(-0.0456721 0.115337 0)
(-0.0688166 0.136837 0)
(-0.0943071 0.155883 0)
(-0.121754 0.173362 0)
(-0.150913 0.189683 0)
(-0.181585 0.204845 0)
(-0.213552 0.218564 0)
(-0.246543 0.230394 0)
(-0.280243 0.239826 0)
(-0.314295 0.246366 0)
(-0.348319 0.249575 0)
(-0.381929 0.249104 0)
(-0.414741 0.244704 0)
(-0.446385 0.236228 0)
(-0.476508 0.22363 0)
(-0.504789 0.206959 0)
(-0.530935 0.186352 0)
(-0.55469 0.162025 0)
(-0.575833 0.134259 0)
(-0.594177 0.103398 0)
(-0.60956 0.0698363 0)
(-0.621827 0.0340105 0)
(-0.63082 -0.00359804 0)
(-0.636368 -0.0424598 0)
(-0.638258 -0.0819932 0)
(-0.636222 -0.121539 0)
(-0.629938 -0.160346 0)
(-0.619036 -0.197548 0)
(-0.60312 -0.232158 0)
(-0.581811 -0.263066 0)
(-0.554808 -0.289063 0)
(-0.52197 -0.308896 0)
(-0.483405 -0.321367 0)
(-0.43956 -0.32545 0)
(-0.391284 -0.320453 0)
(-0.339851 -0.306165 0)
(-0.286916 -0.282984 0)
(-0.234396 -0.251978 0)
(-0.184297 -0.214867 0)
(-0.138489 -0.173894 0)
(-0.0985003 -0.131645 0)
(-0.0653587 -0.0908181 0)
(-0.0395107 -0.0540339 0)
(-0.0208305 -0.0237063 0)
(-0.00869914 -0.00200503 0)
(-0.00214321 0.00910239 0)
(7.97791e-05 0.00775208 0)
(-0.000983817 0.0275499 0)
(-0.0108957 0.0725676 0)
(-0.0274938 0.108609 0)
(-0.0489013 0.137674 0)
(-0.0734627 0.161929 0)
(-0.100381 0.183135 0)
(-0.129223 0.202431 0)
(-0.159714 0.220333 0)
(-0.19163 0.236855 0)
(-0.224732 0.251682 0)
(-0.258737 0.264319 0)
(-0.293317 0.274219 0)
(-0.328109 0.280856 0)
(-0.362732 0.28378 0)
(-0.396798 0.282641 0)
(-0.429925 0.277198 0)
(-0.46175 0.267323 0)
(-0.491935 0.252996 0)
(-0.520179 0.234302 0)
(-0.546225 0.211417 0)
(-0.569868 0.184596 0)
(-0.590951 0.154164 0)
(-0.609361 0.120497 0)
(-0.62502 0.084009 0)
(-0.637859 0.0451402 0)
(-0.647802 0.00435591 0)
(-0.654746 -0.0378516 0)
(-0.658542 -0.0809552 0)
(-0.658948 -0.124369 0)
(-0.655636 -0.167414 0)
(-0.648183 -0.20929 0)
(-0.636081 -0.249045 0)
(-0.618771 -0.285549 0)
(-0.595704 -0.317502 0)
(-0.566425 -0.343468 0)
(-0.530687 -0.361951 0)
(-0.488576 -0.371539 0)
(-0.440626 -0.371077 0)
(-0.387899 -0.359884 0)
(-0.332 -0.337952 0)
(-0.274987 -0.306091 0)
(-0.219197 -0.265976 0)
(-0.166983 -0.220055 0)
(-0.120424 -0.171338 0)
(-0.0810767 -0.123103 0)
(-0.0498139 -0.0786085 0)
(-0.0267872 -0.040867 0)
(-0.0115028 -0.0125484 0)
(-0.00300154 0.00399636 0)
(5.73933e-05 0.00661389 0)
(-0.00103666 0.0333122 0)
(-0.0114689 0.0865514 0)
(-0.0288989 0.128255 0)
(-0.051314 0.161222 0)
(-0.0769422 0.18827 0)
(-0.104922 0.211618 0)
(-0.134774 0.232673 0)
(-0.166191 0.252069 0)
(-0.198922 0.269842 0)
(-0.232709 0.285649 0)
(-0.267252 0.298954 0)
(-0.302212 0.309171 0)
(-0.337217 0.315752 0)
(-0.371879 0.318233 0)
(-0.405808 0.316266 0)
(-0.438622 0.309624 0)
(-0.469964 0.298204 0)
(-0.499512 0.282024 0)
(-0.526996 0.261214 0)
(-0.552208 0.236006 0)
(-0.575002 0.206714 0)
(-0.595298 0.173715 0)
(-0.613072 0.137427 0)
(-0.628339 0.0982917 0)
(-0.641129 0.0567525 0)
(-0.651461 0.0132525 0)
(-0.659323 -0.0317647 0)
(-0.664644 -0.0778442 0)
(-0.667245 -0.124501 0)
(-0.666831 -0.171169 0)
(-0.662971 -0.217166 0)
(-0.655096 -0.261637 0)
(-0.642516 -0.303514 0)
(-0.624464 -0.341483 0)
(-0.600182 -0.37399 0)
(-0.569034 -0.399293 0)
(-0.530665 -0.415589 0)
(-0.485166 -0.421205 0)
(-0.433222 -0.414862 0)
(-0.376206 -0.39596 0)
(-0.31616 -0.364834 0)
(-0.255653 -0.32291 0)
(-0.197498 -0.272692 0)
(-0.144391 -0.21756 0)
(-0.0985455 -0.161424 0)
(-0.0614139 -0.108307 0)
(-0.0335627 -0.0619898 0)
(-0.0147218 -0.0258044 0)
(-0.00400068 -0.00261448 0)
(2.68766e-05 0.00504038 0)
(-0.00106101 0.0393146 0)
(-0.0117985 0.101099 0)
(-0.0297485 0.14866 0)
(-0.0528091 0.185625 0)
(-0.0791219 0.215485 0)
(-0.107767 0.240939 0)
(-0.138217 0.263676 0)
(-0.170128 0.284458 0)
(-0.203224 0.303351 0)
(-0.237221 0.319987 0)
(-0.271805 0.333796 0)
(-0.306623 0.344155 0)
(-0.341293 0.350494 0)
(-0.375419 0.352342 0)
(-0.408605 0.349354 0)
(-0.440471 0.341323 0)
(-0.470672 0.328183 0)
(-0.498909 0.310001 0)
(-0.524954 0.286972 0)
(-0.548653 0.259397 0)
(-0.569931 0.227664 0)
(-0.588792 0.192214 0)
(-0.605301 0.153518 0)
(-0.61957 0.112046 0)
(-0.631729 0.0682482 0)
(-0.641892 0.0225425 0)
(-0.650143 -0.0246832 0)
(-0.6565 -0.0730568 0)
(-0.660872 -0.12221 0)
(-0.66303 -0.17172 0)
(-0.662584 -0.221062 0)
(-0.658969 -0.269541 0)
(-0.65143 -0.316229 0)
(-0.639055 -0.359892 0)
(-0.620831 -0.39896 0)
(-0.595756 -0.431537 0)
(-0.563003 -0.455482 0)
(-0.522121 -0.4686 0)
(-0.473265 -0.468927 0)
(-0.417372 -0.455096 0)
(-0.356256 -0.426721 0)
(-0.292536 -0.384705 0)
(-0.229387 -0.331367 0)
(-0.170128 -0.270321 0)
(-0.11773 -0.20609 0)
(-0.0743899 -0.143579 0)
(-0.041261 -0.0875256 0)
(-0.0184342 -0.0421348 0)
(-0.00517793 -0.0109582 0)
(-1.65607e-05 0.00295358 0)
(-0.00105422 0.0454223 0)
(-0.0118622 0.115926 0)
(-0.0299951 0.16947 0)
(-0.0533134 0.210497 0)
(-0.0799061 0.243174 0)
(-0.1088 0.270684 0)
(-0.139421 0.29501 0)
(-0.171384 0.317052 0)
(-0.204381 0.336911 0)
(-0.238108 0.354205 0)
(-0.272232 0.368329 0)
(-0.306386 0.378631 0)
(-0.340179 0.384519 0)
(-0.373208 0.385517 0)
(-0.405074 0.381292 0)
(-0.435405 0.371666 0)
(-0.463874 0.35662 0)
(-0.490217 0.336288 0)
(-0.514253 0.310943 0)
(-0.535892 0.280973 0)
(-0.555134 0.246847 0)
(-0.572063 0.209083 0)
(-0.586832 0.168208 0)
(-0.599639 0.124724 0)
(-0.6107 0.0790873 0)
(-0.620217 0.03169 0)
(-0.62836 -0.0171359 0)
(-0.635237 -0.0671039 0)
(-0.640851 -0.117966 0)
(-0.645062 -0.169455 0)
(-0.647568 -0.221229 0)
(-0.647862 -0.2728 0)
(-0.645212 -0.323443 0)
(-0.638651 -0.372106 0)
(-0.627008 -0.417323 0)
(-0.608987 -0.457168 0)
(-0.58332 -0.489282 0)
(-0.548988 -0.511013 0)
(-0.505494 -0.519694 0)
(-0.453149 -0.513061 0)
(-0.393292 -0.489767 0)
(-0.328347 -0.449872 0)
(-0.261661 -0.39518 0)
(-0.197089 -0.329276 0)
(-0.138409 -0.257193 0)
(-0.0887108 -0.184772 0)
(-0.0499282 -0.117907 0)
(-0.0226927 -0.0619251 0)
(-0.00656216 -0.0212948 0)
(-7.69335e-05 0.000258045 0)
(-0.00101515 0.0514906 0)
(-0.0116483 0.13073 0)
(-0.0296113 0.190309 0)
(-0.0527847 0.235434 0)
(-0.0792405 0.270918 0)
(-0.107961 0.300425 0)
(-0.138319 0.326235 0)
(-0.169888 0.349395 0)
(-0.202329 0.370051 0)
(-0.235313 0.387813 0)
(-0.268491 0.402048 0)
(-0.301485 0.412076 0)
(-0.333895 0.41729 0)
(-0.365315 0.417212 0)
(-0.395353 0.411529 0)
(-0.423651 0.400104 0)
(-0.449912 0.382981 0)
(-0.473916 0.360373 0)
(-0.495536 0.332646 0)
(-0.51475 0.300283 0)
(-0.53163 0.263847 0)
(-0.546333 0.22393 0)
(-0.559086 0.181116 0)
(-0.570155 0.135941 0)
(-0.579824 0.0888634 0)
(-0.588363 0.040253 0)
(-0.596005 -0.00961137 0)
(-0.602935 -0.0605239 0)
(-0.609248 -0.112349 0)
(-0.614899 -0.164969 0)
(-0.619696 -0.218231 0)
(-0.623246 -0.271871 0)
(-0.624911 -0.32542 0)
(-0.623774 -0.378084 0)
(-0.618623 -0.428623 0)
(-0.607994 -0.475236 0)
(-0.590277 -0.515508 0)
(-0.563924 -0.546473 0)
(-0.527748 -0.564833 0)
(-0.48129 -0.567386 0)
(-0.425176 -0.551628 0)
(-0.361345 -0.51645 0)
(-0.293037 -0.462737 0)
(-0.224462 -0.393665 0)
(-0.160161 -0.314529 0)
(-0.104216 -0.232071 0)
(-0.0595401 -0.153504 0)
(-0.0275181 -0.0855562 0)
(-0.00817207 -0.0339019 0)
(-0.000157542 -0.00315454 0)
(-0.000944354 0.0573718 0)
(-0.0111557 0.1452 0)
(-0.0285921 0.210793 0)
(-0.0512136 0.260024 0)
(-0.0771139 0.298297 0)
(-0.105238 0.329734 0)
(-0.134908 0.356914 0)
(-0.165651 0.381039 0)
(-0.197095 0.402312 0)
(-0.228889 0.420343 0)
(-0.260669 0.434476 0)
(-0.29205 0.44401 0)
(-0.32263 0.448326 0)
(-0.352008 0.446955 0)
(-0.379808 0.439612 0)
(-0.405698 0.426214 0)
(-0.42942 0.40688 0)
(-0.450806 0.381916 0)
(-0.469789 0.351789 0)
(-0.486411 0.317085 0)
(-0.50081 0.278456 0)
(-0.513204 0.236573 0)
(-0.523873 0.192069 0)
(-0.533133 0.145506 0)
(-0.541308 0.0973473 0)
(-0.548707 0.0479385 0)
(-0.555603 -0.00248758 0)
(-0.562239 -0.0537968 0)
(-0.568775 -0.105947 0)
(-0.575259 -0.158951 0)
(-0.581615 -0.212827 0)
(-0.587591 -0.267531 0)
(-0.5927 -0.322865 0)
(-0.596164 -0.378349 0)
(-0.596857 -0.433065 0)
(-0.593292 -0.485486 0)
(-0.583672 -0.533341 0)
(-0.566039 -0.573553 0)
(-0.538566 -0.602365 0)
(-0.499965 -0.615701 0)
(-0.449964 -0.609812 0)
(-0.389726 -0.582136 0)
(-0.322053 -0.5322 0)
(-0.25122 -0.462282 0)
(-0.182374 -0.377538 0)
(-0.120613 -0.285431 0)
(-0.0699962 -0.194572 0)
(-0.0328963 -0.113373 0)
(-0.0100154 -0.0490577 0)
(-0.00026129 -0.00739975 0)
(-0.000844022 0.0629205 0)
(-0.010395 0.159029 0)
(-0.0269548 0.230538 0)
(-0.0486239 0.283856 0)
(-0.073558 0.324893 0)
(-0.100676 0.358192 0)
(-0.129248 0.386626 0)
(-0.158756 0.41156 0)
(-0.188793 0.433266 0)
(-0.218989 0.451364 0)
(-0.248969 0.465186 0)
(-0.278346 0.474014 0)
(-0.306727 0.477228 0)
(-0.333727 0.474374 0)
(-0.358993 0.465208 0)
(-0.382235 0.449713 0)
(-0.40324 0.428092 0)
(-0.421897 0.400755 0)
(-0.4382 0.368273 0)
(-0.45225 0.331333 0)
(-0.464237 0.290676 0)
(-0.474427 0.247036 0)
(-0.483131 0.201093 0)
(-0.490688 0.153426 0)
(-0.49744 0.104495 0)
(-0.503706 0.0546243 0)
(-0.509773 0.00400821 0)
(-0.515911 -0.0472791 0)
(-0.522325 -0.0992651 0)
(-0.529131 -0.152064 0)
(-0.53636 -0.205833 0)
(-0.543903 -0.260719 0)
(-0.551454 -0.316779 0)
(-0.558434 -0.373861 0)
(-0.563908 -0.431429 0)
(-0.566514 -0.488361 0)
(-0.564442 -0.542713 0)
(-0.555512 -0.591548 0)
(-0.537395 -0.630903 0)
(-0.508017 -0.65602 0)
(-0.466119 -0.661944 0)
(-0.411846 -0.644482 0)
(-0.347216 -0.601398 0)
(-0.2762 -0.533511 0)
(-0.204282 -0.44528 0)
(-0.137486 -0.344524 0)
(-0.0811206 -0.241202 0)
(-0.0387774 -0.145651 0)
(-0.0120889 -0.0670235 0)
(-0.000390726 -0.0125949 0)
(-0.000717889 0.0680005 0)
(-0.00938712 0.171922 0)
(-0.0247381 0.249174 0)
(-0.0450712 0.306532 0)
(-0.0686458 0.350304 0)
(-0.0943673 0.3854 0)
(-0.121459 0.414974 0)
(-0.149355 0.440565 0)
(-0.177616 0.462524 0)
(-0.205854 0.480497 0)
(-0.233692 0.493812 0)
(-0.26075 0.501748 0)
(-0.28665 0.503689 0)
(-0.311035 0.499209 0)
(-0.333591 0.488114 0)
(-0.354073 0.470463 0)
(-0.372324 0.446552 0)
(-0.388289 0.416895 0)
(-0.40202 0.38217 0)
(-0.413666 0.343157 0)
(-0.423459 0.300675 0)
(-0.431688 0.255513 0)
(-0.438681 0.20838 0)
(-0.444775 0.159865 0)
(-0.450304 0.110419 0)
(-0.455578 0.0603447 0)
(-0.460871 0.009803 0)
(-0.466453 -0.0411756 0)
(-0.472546 -0.0926677 0)
(-0.479314 -0.144855 0)
(-0.486865 -0.197992 0)
(-0.495218 -0.25237 0)
(-0.504244 -0.308264 0)
(-0.513589 -0.365821 0)
(-0.522575 -0.424906 0)
(-0.530084 -0.48487 0)
(-0.534466 -0.544263 0)
(-0.533525 -0.600531 0)
(-0.524643 -0.64981 0)
(-0.505112 -0.686964 0)
(-0.472708 -0.706021 0)
(-0.42642 -0.701137 0)
(-0.367169 -0.668003 0)
(-0.298223 -0.60541 0)
(-0.22503 -0.516445 0)
(-0.154321 -0.408716 0)
(-0.092669 -0.293287 0)
(-0.0450771 -0.182565 0)
(-0.0143781 -0.0880265 0)
(-0.000547808 -0.0188538 0)
(-0.000570955 0.0724899 0)
(-0.008163 0.183606 0)
(-0.0220009 0.266352 0)
(-0.0406407 0.327676 0)
(-0.0624882 0.374149 0)
(-0.086452 0.410985 0)
(-0.111713 0.441596 0)
(-0.137661 0.4677 0)
(-0.163825 0.489746 0)
(-0.189803 0.50742 0)
(-0.215222 0.520061 0)
(-0.239718 0.526954 0)
(-0.262942 0.527498 0)
(-0.284574 0.521306 0)
(-0.304348 0.508245 0)
(-0.322072 0.488452 0)
(-0.337645 0.462324 0)
(-0.351068 0.430475 0)
(-0.362441 0.393681 0)
(-0.371952 0.352809 0)
(-0.379856 0.308739 0)
(-0.386451 0.262303 0)
(-0.392059 0.214225 0)
(-0.397 0.165094 0)
(-0.401583 0.115343 0)
(-0.406087 0.0652523 0)
(-0.410758 0.0149561 0)
(-0.415842 -0.0355446 0)
(-0.42156 -0.0863566 0)
(-0.428092 -0.137698 0)
(-0.435595 -0.189879 0)
(-0.444185 -0.243286 0)
(-0.453883 -0.298347 0)
(-0.464553 -0.35546 0)
(-0.47579 -0.414857 0)
(-0.486792 -0.476383 0)
(-0.496205 -0.539175 0)
(-0.502019 -0.601273 0)
(-0.501568 -0.659227 0)
(-0.491746 -0.707893 0)
(-0.46951 -0.740624 0)
(-0.432674 -0.75008 0)
(-0.380849 -0.729734 0)
(-0.316215 -0.675858 0)
(-0.243744 -0.589419 0)
(-0.170546 -0.477064 0)
(-0.104342 -0.350493 0)
(-0.0516798 -0.224166 0)
(-0.0168575 -0.112243 0)
(-0.000733704 -0.0262813 0)
(-0.000409174 0.0762863 0)
(-0.00676156 0.193842 0)
(-0.0188193 0.281757 0)
(-0.035444 0.346941 0)
(-0.0552297 0.39608 0)
(-0.0771085 0.434608 0)
(-0.100228 0.466168 0)
(-0.123935 0.49266 0)
(-0.147731 0.514648 0)
(-0.171205 0.531875 0)
(-0.193994 0.543709 0)
(-0.215761 0.549452 0)
(-0.236192 0.548533 0)
(-0.255017 0.540608 0)
(-0.272021 0.525613 0)
(-0.287071 0.503769 0)
(-0.300121 0.475567 0)
(-0.311222 0.441718 0)
(-0.320511 0.403086 0)
(-0.328201 0.360608 0)
(-0.334556 0.315213 0)
(-0.339867 0.267756 0)
(-0.344435 0.218968 0)
(-0.348549 0.169425 0)
(-0.35248 0.119539 0)
(-0.356466 0.0695657 0)
(-0.360716 0.0196156 0)
(-0.365437 -0.0303284 0)
(-0.37083 -0.0803869 0)
(-0.377073 -0.13079 0)
(-0.384342 -0.181866 0)
(-0.392811 -0.234047 0)
(-0.402615 -0.287853 0)
(-0.413793 -0.343861 0)
(-0.426201 -0.402602 0)
(-0.439365 -0.464376 0)
(-0.452306 -0.528939 0)
(-0.463357 -0.595056 0)
(-0.470039 -0.659967 0)
(-0.469123 -0.718918 0)
(-0.456996 -0.765028 0)
(-0.430416 -0.789804 0)
(-0.387595 -0.784564 0)
(-0.329316 -0.742717 0)
(-0.259624 -0.662385 0)
(-0.185576 -0.548356 0)
(-0.115808 -0.412254 0)
(-0.0584452 -0.270356 0)
(-0.0194915 -0.139785 0)
(-0.000948606 -0.0349686 0)
(-0.000239053 0.0793104 0)
(-0.00522798 0.20243 0)
(-0.0152838 0.295113 0)
(-0.0296146 0.364018 0)
(-0.047043 0.415785 0)
(-0.0665481 0.455969 0)
(-0.0872555 0.48841 0)
(-0.108476 0.515189 0)
(-0.129685 0.537 0)
(-0.150468 0.553666 0)
(-0.170479 0.564599 0)
(-0.189411 0.569136 0)
(-0.206998 0.566743 0)
(-0.223023 0.55713 0)
(-0.237331 0.540302 0)
(-0.249843 0.516563 0)
(-0.260566 0.486494 0)
(-0.269592 0.450891 0)
(-0.277085 0.410692 0)
(-0.283268 0.366887 0)
(-0.2884 0.32044 0)
(-0.292753 0.272216 0)
(-0.296597 0.222939 0)
(-0.300181 0.173165 0)
(-0.30373 0.123282 0)
(-0.30744 0.0735201 0)
(-0.311475 0.0239695 0)
(-0.316 -0.0253978 0)
(-0.321186 -0.0747043 0)
(-0.327193 -0.124174 0)
(-0.334193 -0.174126 0)
(-0.342385 -0.224996 0)
(-0.351972 -0.277343 0)
(-0.363123 -0.331843 0)
(-0.375901 -0.389242 0)
(-0.390134 -0.450217 0)
(-0.405233 -0.5151 0)
(-0.419965 -0.583432 0)
(-0.432225 -0.653332 0)
(-0.438936 -0.7208 0)
(-0.436219 -0.779216 0)
(-0.420018 -0.819427 0)
(-0.387202 -0.830883 0)
(-0.336963 -0.804005 0)
(-0.272012 -0.733448 0)
(-0.198865 -0.621174 0)
(-0.126725 -0.477787 0)
(-0.0652179 -0.32089 0)
(-0.0222363 -0.170689 0)
(-0.00119158 -0.0449889 0)
(-6.72718e-05 0.081509 0)