/*--------------------------------*- C++ -*----------------------------------*\
  =========                 |
  \\      /  F ield         | OpenFOAM: The Open Source CFD Toolbox
   \\    /   O peration     | Website:  https://openfoam.org
    \\  /    A nd           | Version:  7
     \\/     M anipulation  |
\*---------------------------------------------------------------------------*/
FoamFile
{
    version     2.0;
    format      ascii;
    class       volScalarField;
    location    "1200";
    object      p;
}
// * * * * * * * * * * * * * * * * * * * * * * * * * * * * * * * * * * * * * //

dimensions      [0 2 -2 0 0 0 0];

internalField   nonuniform List<scalar> 
2500
(
1.62448e-07
7.10845e-05
-8.84886e-06
-0.000307693
-0.000782122
-0.0013697
-0.00203025
-0.00275923
-0.00358236
-0.00454029
-0.0056731
-0.00701066
-0.00856989
-0.0103505
-0.0123291
-0.0144515
-0.0166255
-0.0187196
-0.0205688
-0.021991
-0.0228115
-0.0228907
-0.0221535
-0.0206162
-0.0184048
-0.0157454
-0.0129596
-0.0104648
-0.0087228
-0.00817142
-0.00914358
-0.011776
-0.0159564
-0.0213892
-0.0276148
-0.0340716
-0.040231
-0.0456922
-0.0502239
-0.0537513
-0.0563244
-0.058078
-0.0591868
-0.0598267
-0.0601496
-0.0602716
-0.0602707
-0.0601894
-0.0600501
-0.0599109
-6.90299e-05
3.78646e-06
-8.00373e-05
-0.000376521
-0.000828943
-0.00137314
-0.00197399
-0.00263294
-0.00337857
-0.00425121
-0.00528969
-0.00652394
-0.00797465
-0.0096496
-0.0115371
-0.0136004
-0.0157686
-0.0179301
-0.0199322
-0.021591
-0.0227143
-0.023132
-0.0227304
-0.0214852
-0.0194916
-0.0169664
-0.0142468
-0.0117683
-0.0100115
-0.00943345
-0.0103827
-0.0130184
-0.0172564
-0.0227472
-0.0289887
-0.0354325
-0.0415246
-0.0468239
-0.0510913
-0.0542998
-0.0565672
-0.0580752
-0.0590171
-0.0595658
-0.0598574
-0.0599891
-0.060023
-0.0599884
-0.0598869
-0.0597552
-1.90297e-05
4.96523e-05
-5.72833e-05
-0.000379783
-0.000832222
-0.00133884
-0.00186946
-0.00243689
-0.00308219
-0.00385292
-0.00479317
-0.00594333
-0.00734141
-0.00902188
-0.0110047
-0.0132787
-0.0157837
-0.0183978
-0.0209388
-0.0231801
-0.0248825
-0.0258321
-0.0258773
-0.024967
-0.0231936
-0.0207844
-0.0180764
-0.0155034
-0.0135579
-0.0127203
-0.0133726
-0.0157129
-0.0196963
-0.0250209
-0.031178
-0.0375461
-0.0435477
-0.0487402
-0.0528434
-0.0557916
-0.057715
-0.0588593
-0.059478
-0.0597759
-0.0598974
-0.0599322
-0.059927
-0.0598915
-0.0597956
-0.0596513
0.000228201
0.000266245
0.000101775
-0.000279557
-0.000755381
-0.00123673
-0.00170266
-0.00218528
-0.00274564
-0.0034548
-0.00438617
-0.0056192
-0.00723876
-0.00932183
-0.0119113
-0.014987
-0.0184459
-0.0220996
-0.0256923
-0.0289332
-0.031538
-0.0332671
-0.0339559
-0.0335405
-0.032093
-0.029816
-0.0270219
-0.0241319
-0.0216406
-0.0200549
-0.0198124
-0.0211928
-0.0242448
-0.0287554
-0.0342743
-0.0401984
-0.0459053
-0.0508757
-0.0548146
-0.0576321
-0.0593794
-0.0602682
-0.0605797
-0.060574
-0.0604355
-0.060274
-0.0601398
-0.0600339
-0.0599039
-0.059739
0.000707531
0.000677395
0.000418182
-4.40182e-05
-0.000555244
-0.00102916
-0.00146027
-0.00190854
-0.00247469
-0.00328067
-0.00446352
-0.00617108
-0.00854261
-0.0116737
-0.0155786
-0.0201666
-0.0252413
-0.0305216
-0.0356773
-0.0403671
-0.0442767
-0.0471486
-0.0488046
-0.0491601
-0.0482446
-0.0462041
-0.0433035
-0.0399279
-0.0365494
-0.0336834
-0.0318221
-0.0313535
-0.0324794
-0.0351567
-0.039085
-0.0437591
-0.048579
-0.0529838
-0.0565737
-0.0591612
-0.0607802
-0.0615869
-0.0617725
-0.0615873
-0.0612505
-0.0609053
-0.0606254
-0.0604238
-0.0602475
-0.0600706
0.00146273
0.00132868
0.000949273
0.000397636
-0.000168542
-0.000675087
-0.00114668
-0.00169615
-0.00249279
-0.00374273
-0.00567165
-0.00849359
-0.0123642
-0.0173346
-0.0233248
-0.0301267
-0.037431
-0.0448661
-0.0520388
-0.0585689
-0.0641194
-0.0684196
-0.0712816
-0.0726066
-0.0723929
-0.0707247
-0.0678
-0.0639393
-0.0595507
-0.0551098
-0.0511193
-0.0480502
-0.0462685
-0.0459607
-0.0470805
-0.0493444
-0.0522897
-0.0553868
-0.0581687
-0.0603256
-0.061737
-0.0624517
-0.0626336
-0.0624456
-0.0620591
-0.0616334
-0.0612677
-0.0609993
-0.0607939
-0.0606225
0.00253227
0.00226943
0.00176062
0.00110909
0.000452127
-0.000167156
-0.000836908
-0.0017528
-0.00318429
-0.00544151
-0.00882639
-0.0135682
-0.0197637
-0.0273462
-0.0360908
-0.0456492
-0.0555972
-0.0654815
-0.07486
-0.0833327
-0.0905649
-0.0963005
-0.100367
-0.102673
-0.103215
-0.102043
-0.0992827
-0.0951686
-0.0900035
-0.0841605
-0.0780713
-0.0722022
-0.0670112
-0.0628875
-0.060083
-0.058655
-0.0584449
-0.0591143
-0.0602355
-0.0614067
-0.06234
-0.062896
-0.0630736
-0.0629606
-0.0626609
-0.062286
-0.0619354
-0.0616667
-0.061471
-0.0613258
0.0039225
0.00352353
0.00288448
0.00211077
0.00129548
0.000410867
-0.000728374
-0.00243142
-0.00508333
-0.00907816
-0.0147314
-0.0221993
-0.0314347
-0.0421933
-0.0540758
-0.0665888
-0.0792054
-0.0914155
-0.102764
-0.112874
-0.121458
-0.128318
-0.133327
-0.136425
-0.137629
-0.137
-0.13461
-0.130604
-0.125165
-0.118525
-0.110972
-0.102855
-0.0945882
-0.0866267
-0.0794316
-0.0734034
-0.0688062
-0.0657036
-0.0639385
-0.0631786
-0.0630199
-0.0631014
-0.0631783
-0.0631441
-0.0629949
-0.0627719
-0.0625382
-0.0623473
-0.0622072
-0.0621065
0.00557867
0.00505049
0.00427622
0.00333781
0.00223965
0.000843485
-0.00116286
-0.00421537
-0.00879136
-0.0152991
-0.0239682
-0.0347841
-0.0474854
-0.0616142
-0.076593
-0.091805
-0.106662
-0.120652
-0.133368
-0.144509
-0.153881
-0.161371
-0.166922
-0.170516
-0.172196
-0.17206
-0.170152
-0.166551
-0.161342
-0.154626
-0.14653
-0.137225
-0.126956
-0.116072
-0.105036
-0.0944195
-0.0848423
-0.076863
-0.0708435
-0.0668345
-0.0645579
-0.0635157
-0.0631744
-0.0631193
-0.0631199
-0.0631004
-0.0630558
-0.063009
-0.062964
-0.062919
0.00735033
0.00670713
0.00578649
0.00460144
0.00302319
0.000772856
-0.00260163
-0.00764111
-0.0148451
-0.0245307
-0.0367339
-0.0511888
-0.0673797
-0.0846356
-0.102236
-0.1195
-0.135855
-0.150861
-0.164217
-0.175741
-0.185348
-0.193016
-0.198753
-0.202576
-0.204548
-0.204794
-0.20335
-0.200258
-0.195552
-0.189249
-0.18136
-0.1719
-0.160917
-0.148542
-0.135049
-0.120916
-0.106852
-0.0937496
-0.0825306
-0.0739024
-0.0681147
-0.0648671
-0.0634583
-0.0630969
-0.0631721
-0.0633537
-0.0635338
-0.0636718
-0.0637469
-0.0637615
0.00897948
0.00824025
0.00713774
0.00557307
0.0032491
-0.000267174
-0.0055511
-0.0131849
-0.0235861
-0.0368676
-0.0527836
-0.0707735
-0.0900721
-0.109843
-0.129302
-0.147797
-0.164853
-0.180167
-0.193576
-0.205023
-0.214515
-0.222098
-0.227821
-0.231721
-0.233864
-0.234376
-0.23329
-0.230639
-0.226438
-0.220681
-0.213329
-0.204315
-0.193551
-0.180972
-0.166594
-0.150615
-0.133529
-0.116202
-0.0998465
-0.0857979
-0.0751277
-0.0682299
-0.0646604
-0.0633918
-0.0633193
-0.0636625
-0.0640613
-0.064397
-0.064602
-0.0646768
0.0101126
0.00928225
0.00793075
0.00580918
0.00243287
-0.00277451
-0.0104608
-0.0211548
-0.0350797
-0.0520506
-0.0714922
-0.0925562
-0.114284
-0.135767
-0.156259
-0.17523
-0.192366
-0.207522
-0.220669
-0.231842
-0.241108
-0.248542
-0.254207
-0.258143
-0.260403
-0.261098
-0.260252
-0.257898
-0.254056
-0.248725
-0.241871
-0.233416
-0.223234
-0.21116
-0.197024
-0.180737
-0.162421
-0.142591
-0.122297
-0.103119
-0.0868513
-0.07491
-0.0677119
-0.0644937
-0.0637774
-0.0641437
-0.0647392
-0.0652671
-0.0656042
-0.0657424
0.010321
0.00938526
0.00769364
0.00481632
8.5522e-05
-0.00718147
-0.0176275
-0.0316236
-0.049103
-0.0695298
-0.092003
-0.115445
-0.138801
-0.161202
-0.182036
-0.200954
-0.217817
-0.232622
-0.245434
-0.256341
-0.265427
-0.272769
-0.27842
-0.282412
-0.284778
-0.28561
-0.284918
-0.282735
-0.279088
-0.273991
-0.267432
-0.259366
-0.249694
-0.238251
-0.224812
-0.209121
-0.190987
-0.170463
-0.148101
-0.125184
-0.103728
-0.0860255
-0.0737539
-0.0671384
-0.0648614
-0.0649062
-0.0656508
-0.066363
-0.0668404
-0.0670537
0.00915987
0.00809341
0.00595993
0.00213961
-0.00419196
-0.0137667
-0.0271343
-0.044416
-0.0651963
-0.0885835
-0.113404
-0.138446
-0.162675
-0.185356
-0.206069
-0.224659
-0.241136
-0.255593
-0.268142
-0.278882
-0.28789
-0.295223
-0.300921
-0.304999
-0.307474
-0.30842
-0.307837
-0.305754
-0.302197
-0.297189
-0.290739
-0.282837
-0.273434
-0.262424
-0.249621
-0.234755
-0.21749
-0.197541
-0.174899
-0.150195
-0.125033
-0.101969
-0.0838001
-0.0722771
-0.0670903
-0.0661158
-0.0668469
-0.0677514
-0.0683936
-0.0687074
0.00625279
0.00502319
0.00235561
-0.00254945
-0.0106299
-0.0226002
-0.0388362
-0.0591469
-0.0827526
-0.108447
-0.134872
-0.160793
-0.185293
-0.207829
-0.228187
-0.246371
-0.262495
-0.276696
-0.289093
-0.299772
-0.308785
-0.31617
-0.32195
-0.326128
-0.328708
-0.329754
-0.329262
-0.327252
-0.323747
-0.318767
-0.31233
-0.304447
-0.295108
-0.284272
-0.271837
-0.257606
-0.241267
-0.222408
-0.200645
-0.175934
-0.149063
-0.122104
-0.0982858
-0.0808363
-0.0712046
-0.0680833
-0.0684001
-0.0694938
-0.0703367
-0.0707933
0.00136069
-6.26863e-05
-0.00332806
-0.00938947
-0.0192463
-0.0335323
-0.0523894
-0.0752895
-0.101115
-0.128418
-0.155759
-0.181978
-0.206336
-0.228501
-0.248433
-0.266248
-0.282109
-0.296158
-0.308494
-0.319177
-0.328236
-0.335692
-0.341556
-0.345825
-0.348497
-0.34963
-0.349221
-0.347281
-0.343827
-0.338874
-0.332438
-0.324531
-0.315165
-0.30434
-0.292025
-0.278128
-0.262443
-0.244612
-0.224136
-0.200531
-0.173761
-0.144921
-0.116781
-0.0933534
-0.0780322
-0.0713336
-0.0704753
-0.0716555
-0.0727466
-0.0734022
-0.00556934
-0.0072076
-0.0110939
-0.0183037
-0.0298451
-0.0462211
-0.0673089
-0.0922535
-0.119655
-0.147917
-0.175608
-0.201712
-0.225692
-0.247402
-0.266931
-0.284453
-0.300139
-0.314109
-0.326434
-0.337144
-0.346252
-0.353767
-0.359696
-0.364037
-0.366782
-0.367985
-0.367651
-0.365782
-0.362389
-0.357484
-0.351074
-0.343169
-0.333781
-0.322923
-0.310606
-0.296815
-0.281467
-0.264344
-0.245025
-0.222897
-0.19738
-0.168545
-0.138057
-0.109685
-0.0882068
-0.0765427
-0.073391
-0.074339
-0.0757371
-0.0766407
-0.0143896
-0.0162496
-0.0207367
-0.0290134
-0.0420496
-0.0601869
-0.0830355
-0.109452
-0.137829
-0.166504
-0.194128
-0.219862
-0.243358
-0.264615
-0.283799
-0.301102
-0.316673
-0.330601
-0.342924
-0.353655
-0.362793
-0.370344
-0.376315
-0.380703
-0.383503
-0.384761
-0.384491
-0.382689
-0.379364
-0.374523
-0.36817
-0.360309
-0.350945
-0.340089
-0.327761
-0.313985
-0.298763
-0.282021
-0.263507
-0.242708
-0.21886
-0.191316
-0.160467
-0.128967
-0.101887
-0.0843549
-0.077607
-0.077705
-0.0794321
-0.0806206
-0.0247721
-0.0268451
-0.0318755
-0.0410815
-0.0553578
-0.0748751
-0.0989981
-0.126351
-0.155193
-0.183868
-0.211152
-0.236382
-0.25937
-0.280215
-0.299115
-0.31625
-0.331738
-0.34563
-0.357943
-0.368674
-0.37782
-0.385384
-0.391375
-0.395793
-0.398631
-0.399932
-0.399715
-0.397973
-0.394713
-0.389943
-0.383664
-0.375877
-0.366582
-0.355783
-0.343495
-0.329746
-0.314577
-0.29801
-0.279964
-0.260126
-0.237832
-0.212136
-0.18243
-0.149851
-0.118626
-0.0951471
-0.0836294
-0.0819839
-0.0839371
-0.0854548
-0.0362553
-0.0385177
-0.0440068
-0.0539717
-0.0692051
-0.0897153
-0.114659
-0.142492
-0.171404
-0.199795
-0.226583
-0.251263
-0.273766
-0.294249
-0.312914
-0.329911
-0.345323
-0.359172
-0.371458
-0.38217
-0.391304
-0.398864
-0.40486
-0.409296
-0.412162
-0.413494
-0.413321
-0.41163
-0.408429
-0.403726
-0.397524
-0.389823
-0.380624
-0.369925
-0.357733
-0.344067
-0.328972
-0.312511
-0.294718
-0.275486
-0.254385
-0.230525
-0.202773
-0.170876
-0.137454
-0.108863
-0.0918861
-0.087469
-0.0893427
-0.0912629
-0.0483036
-0.0507189
-0.0565674
-0.0671098
-0.0830207
-0.104167
-0.129546
-0.157498
-0.186202
-0.21414
-0.240365
-0.264502
-0.286564
-0.306734
-0.325196
-0.342069
-0.357402
-0.371196
-0.383439
-0.394118
-0.403229
-0.410775
-0.416768
-0.421214
-0.424101
-0.425455
-0.425318
-0.423669
-0.420519
-0.415876
-0.409745
-0.40213
-0.393033
-0.382454
-0.370394
-0.356865
-0.341899
-0.325562
-0.307942
-0.289079
-0.268795
-0.246452
-0.220847
-0.190799
-0.15713
-0.124974
-0.102575
-0.0944401
-0.0957412
-0.0981571
-0.0603665
-0.0628878
-0.068992
-0.0799374
-0.0962721
-0.117752
-0.143258
-0.171073
-0.199395
-0.226799
-0.252456
-0.276089
-0.297761
-0.317658
-0.335941
-0.352696
-0.367945
-0.381674
-0.393865
-0.404504
-0.413586
-0.421115
-0.427101
-0.431551
-0.434455
-0.435823
-0.435716
-0.434101
-0.430994
-0.426401
-0.420332
-0.412794
-0.403793
-0.393334
-0.381419
-0.368057
-0.353269
-0.337107
-0.319667
-0.301067
-0.281324
-0.260107
-0.236441
-0.208771
-0.176418
-0.142582
-0.115548
-0.103089
-0.103241
-0.106194
-0.0719297
-0.074506
-0.0807605
-0.0919519
-0.108495
-0.130066
-0.155476
-0.182987
-0.210839
-0.237694
-0.262818
-0.286002
-0.307336
-0.326996
-0.345116
-0.361758
-0.376921
-0.390582
-0.402719
-0.413317
-0.422371
-0.429882
-0.435861
-0.440314
-0.443229
-0.444607
-0.444523
-0.442936
-0.439861
-0.435308
-0.429289
-0.421816
-0.412898
-0.402547
-0.390772
-0.377582
-0.362994
-0.34705
-0.329832
-0.31148
-0.292127
-0.271712
-0.24961
-0.224345
-0.194296
-0.160594
-0.130291
-0.113429
-0.111899
-0.115313
-0.0825741
-0.0851114
-0.0914326
-0.102731
-0.119307
-0.140787
-0.165951
-0.193067
-0.220425
-0.246762
-0.271413
-0.294212
-0.315257
-0.334711
-0.352686
-0.369221
-0.384301
-0.397898
-0.409986
-0.420548
-0.429578
-0.437077
-0.443049
-0.447504
-0.45043
-0.451813
-0.451747
-0.450179
-0.447127
-0.442603
-0.436621
-0.429195
-0.420343
-0.410081
-0.398427
-0.385396
-0.371009
-0.3553
-0.338339
-0.320258
-0.301243
-0.281415
-0.260502
-0.237369
-0.210049
-0.177923
-0.145994
-0.125216
-0.121617
-0.125275
-0.0919823
-0.0943269
-0.100648
-0.111948
-0.128417
-0.149675
-0.174499
-0.201184
-0.22807
-0.253948
-0.2782
-0.30068
-0.321486
-0.340766
-0.358614
-0.375053
-0.390061
-0.403604
-0.415652
-0.426188
-0.435204
-0.442697
-0.448668
-0.453125
-0.45606
-0.457451
-0.457395
-0.45584
-0.452801
-0.448293
-0.44233
-0.434933
-0.426123
-0.415926
-0.404366
-0.391468
-0.37726
-0.361778
-0.345084
-0.327298
-0.308616
-0.289261
-0.269244
-0.247857
-0.223251
-0.193636
-0.161686
-0.137921
-0.132052
-0.135655
-0.099906
-0.101922
-0.108136
-0.119358
-0.135619
-0.15656
-0.180991
-0.207249
-0.233713
-0.259209
-0.283141
-0.305369
-0.325985
-0.345124
-0.362866
-0.379227
-0.394178
-0.407681
-0.419705
-0.43023
-0.439245
-0.446742
-0.45272
-0.457184
-0.460128
-0.46153
-0.461479
-0.459933
-0.456895
-0.452387
-0.446426
-0.439034
-0.430241
-0.420076
-0.408576
-0.395774
-0.381708
-0.366421
-0.349978
-0.332488
-0.314142
-0.295209
-0.275886
-0.255869
-0.233698
-0.207027
-0.176386
-0.150796
-0.14266
-0.145915
-0.106179
-0.107779
-0.113741
-0.124811
-0.140795
-0.161359
-0.185373
-0.211221
-0.237319
-0.262513
-0.286204
-0.308245
-0.328717
-0.347746
-0.365409
-0.381712
-0.396626
-0.410111
-0.422131
-0.432663
-0.441692
-0.449208
-0.455205
-0.459683
-0.462639
-0.464053
-0.464005
-0.462463
-0.459418
-0.454896
-0.448918
-0.441508
-0.432699
-0.422531
-0.411048
-0.398296
-0.384323
-0.369183
-0.352947
-0.335725
-0.317702
-0.299158
-0.280404
-0.261447
-0.241315
-0.217623
-0.189222
-0.162994
-0.152805
-0.155483
-0.110733
-0.111859
-0.117423
-0.128247
-0.143892
-0.164026
-0.187598
-0.213054
-0.238845
-0.263816
-0.287353
-0.309282
-0.329669
-0.34863
-0.366241
-0.382512
-0.397413
-0.410902
-0.42294
-0.4335
-0.442561
-0.450109
-0.456134
-0.46063
-0.463593
-0.465012
-0.46496
-0.463422
-0.460361
-0.455812
-0.449797
-0.442343
-0.433488
-0.42328
-0.411771
-0.399019
-0.385081
-0.370025
-0.353933
-0.336923
-0.31918
-0.300988
-0.282715
-0.264584
-0.246085
-0.225142
-0.199508
-0.173697
-0.161856
-0.16382
-0.113597
-0.114218
-0.119246
-0.129712
-0.144955
-0.164603
-0.187694
-0.212753
-0.238265
-0.26307
-0.286518
-0.3084
-0.328754
-0.347692
-0.36529
-0.381563
-0.396484
-0.410011
-0.422101
-0.432721
-0.441847
-0.449459
-0.455543
-0.460088
-0.463089
-0.46453
-0.464454
-0.462885
-0.459774
-0.455159
-0.449066
-0.441529
-0.432592
-0.422305
-0.410724
-0.397917
-0.383952
-0.36891
-0.352887
-0.336011
-0.318477
-0.300576
-0.282706
-0.265226
-0.248001
-0.229437
-0.206748
-0.182195
-0.169242
-0.170443
-0.114879
-0.114996
-0.119369
-0.129335
-0.144089
-0.163183
-0.185737
-0.210369
-0.235607
-0.260279
-0.283689
-0.305579
-0.325954
-0.344912
-0.362533
-0.37884
-0.393812
-0.407406
-0.419578
-0.430289
-0.439507
-0.447208
-0.453372
-0.457984
-0.461035
-0.462515
-0.462441
-0.460853
-0.457692
-0.453
-0.44681
-0.439155
-0.43008
-0.419645
-0.407917
-0.394975
-0.380906
-0.365799
-0.349759
-0.332926
-0.315511
-0.297816
-0.280262
-0.263291
-0.247044
-0.230438
-0.210622
-0.187916
-0.174465
-0.174934
-0.114755
-0.114405
-0.118024
-0.127319
-0.141462
-0.159905
-0.181837
-0.205978
-0.230911
-0.255454
-0.278859
-0.300803
-0.321248
-0.340273
-0.357958
-0.374336
-0.389394
-0.403092
-0.415381
-0.426217
-0.435561
-0.443382
-0.449653
-0.454355
-0.457475
-0.459
-0.458933
-0.457324
-0.454105
-0.449321
-0.443009
-0.435206
-0.425959
-0.415334
-0.403404
-0.390256
-0.375984
-0.360695
-0.344516
-0.327612
-0.310207
-0.292613
-0.275273
-0.258682
-0.243174
-0.22812
-0.210937
-0.190429
-0.177099
-0.176929
-0.113453
-0.112708
-0.115512
-0.123941
-0.137303
-0.154961
-0.176146
-0.199683
-0.224232
-0.24861
-0.27201
-0.294038
-0.314597
-0.333738
-0.351535
-0.368028
-0.383214
-0.397057
-0.409505
-0.420508
-0.430018
-0.437997
-0.444409
-0.44923
-0.452438
-0.454021
-0.453968
-0.452338
-0.449056
-0.444163
-0.437706
-0.429719
-0.420257
-0.409386
-0.397188
-0.383757
-0.369198
-0.353629
-0.337194
-0.320075
-0.302526
-0.284897
-0.267652
-0.251313
-0.236345
-0.222475
-0.207594
-0.189425
-0.176776
-0.176103
-0.111239
-0.110196
-0.112171
-0.119536
-0.1319
-0.148594
-0.168859
-0.191628
-0.215654
-0.239773
-0.263128
-0.285244
-0.305952
-0.325257
-0.343219
-0.359881
-0.375246
-0.389282
-0.401937
-0.413154
-0.422877
-0.431056
-0.437649
-0.442621
-0.445947
-0.447607
-0.447585
-0.445933
-0.442586
-0.437575
-0.430948
-0.422746
-0.413023
-0.40185
-0.389315
-0.375517
-0.36057
-0.344607
-0.327788
-0.31032
-0.292483
-0.274659
-0.257353
-0.241123
-0.226514
-0.213502
-0.200557
-0.184698
-0.173173
-0.172158
-0.108389
-0.107164
-0.108345
-0.11448
-0.125598
-0.141092
-0.160215
-0.181995
-0.205293
-0.228996
-0.252213
-0.274384
-0.295255
-0.31477
-0.332957
-0.349851
-0.365457
-0.379747
-0.392667
-0.404153
-0.414142
-0.422572
-0.429391
-0.434556
-0.438033
-0.439797
-0.439829
-0.438161
-0.434753
-0.429616
-0.4228
-0.414351
-0.404324
-0.392792
-0.379846
-0.365593
-0.350154
-0.333675
-0.316334
-0.298364
-0.280078
-0.261899
-0.244377
-0.228104
-0.213677
-0.201225
-0.189833
-0.176129
-0.166004
-0.164813
-0.105173
-0.103878
-0.104356
-0.109156
-0.118774
-0.132789
-0.150492
-0.171
-0.193301
-0.216358
-0.239275
-0.261421
-0.282445
-0.302207
-0.320684
-0.337886
-0.353812
-0.36843
-0.381687
-0.393511
-0.403828
-0.412569
-0.419669
-0.425076
-0.428746
-0.430647
-0.430756
-0.42909
-0.425626
-0.42036
-0.41334
-0.404616
-0.394243
-0.382296
-0.368867
-0.354067
-0.338027
-0.320903
-0.302895
-0.284264
-0.26536
-0.246653
-0.228745
-0.212279
-0.197891
-0.185715
-0.17548
-0.163676
-0.155022
-0.153797
-0.101825
-0.100558
-0.100465
-0.103919
-0.111825
-0.12405
-0.140002
-0.158898
-0.179862
-0.201968
-0.224351
-0.246329
-0.267451
-0.28748
-0.306313
-0.323914
-0.340258
-0.355302
-0.368986
-0.381232
-0.391957
-0.40108
-0.408527
-0.414232
-0.418145
-0.420224
-0.420442
-0.418801
-0.415294
-0.4099
-0.402665
-0.393642
-0.382884
-0.370466
-0.356481
-0.341043
-0.324291
-0.306393
-0.287571
-0.268116
-0.248424
-0.229016
-0.21055
-0.193723
-0.179227
-0.167121
-0.15763
-0.147381
-0.140039
-0.138851
-0.0985315
-0.0973604
-0.0968591
-0.0990612
-0.105126
-0.115263
-0.129088
-0.145972
-0.165193
-0.185968
-0.207505
-0.229099
-0.250215
-0.270499
-0.289747
-0.307846
-0.324726
-0.340318
-0.354546
-0.367322
-0.378552
-0.388145
-0.396016
-0.402089
-0.406304
-0.408612
-0.408978
-0.407392
-0.40386
-0.398345
-0.39089
-0.381548
-0.37037
-0.35743
-0.342819
-0.326654
-0.309081
-0.290282
-0.270503
-0.250069
-0.229425
-0.209149
-0.18996
-0.172608
-0.157822
-0.145649
-0.13648
-0.127366
-0.120954
-0.119746
-0.0954227
-0.0943877
-0.0936476
-0.0947831
-0.0990003
-0.106805
-0.118113
-0.132532
-0.149543
-0.16854
-0.188841
-0.209763
-0.230701
-0.251184
-0.270883
-0.289583
-0.307134
-0.323421
-0.338338
-0.351778
-0.363636
-0.373808
-0.382198
-0.388722
-0.39331
-0.395906
-0.396469
-0.394977
-0.391444
-0.385823
-0.378149
-0.368473
-0.356846
-0.343337
-0.328037
-0.311064
-0.29257
-0.272754
-0.251887
-0.230334
-0.20859
-0.187296
-0.167232
-0.149197
-0.133945
-0.121531
-0.112296
-0.103816
-0.0977565
-0.096246
-0.0925761
-0.0916955
-0.09087
-0.0911848
-0.0936729
-0.0990045
-0.107429
-0.118899
-0.133181
-0.149896
-0.168513
-0.188405
-0.208926
-0.229498
-0.249651
-0.269036
-0.287398
-0.304546
-0.320323
-0.334592
-0.347227
-0.358111
-0.367137
-0.374212
-0.379259
-0.382214
-0.383032
-0.381683
-0.378179
-0.372473
-0.364589
-0.354574
-0.342477
-0.328364
-0.312323
-0.294475
-0.274979
-0.254053
-0.231993
-0.209208
-0.186246
-0.163809
-0.142737
-0.123866
-0.107969
-0.0950595
-0.0854319
-0.0769583
-0.0704972
-0.0680091
-0.090024
-0.0893063
-0.0885181
-0.0882707
-0.0892453
-0.0920849
-0.097335
-0.105381
-0.116392
-0.130285
-0.146729
-0.165186
-0.184998
-0.205489
-0.226048
-0.246173
-0.265473
-0.28365
-0.300474
-0.315758
-0.329345
-0.341098
-0.350898
-0.358644
-0.36425
-0.36765
-0.368794
-0.367646
-0.364211
-0.358452
-0.350376
-0.340028
-0.327454
-0.312718
-0.295907
-0.277144
-0.256598
-0.234503
-0.211187
-0.187098
-0.16284
-0.13917
-0.116975
-0.0971203
-0.0803686
-0.0666542
-0.056319
-0.0470621
-0.0393785
-0.0346352
-0.0877578
-0.0872158
-0.0865552
-0.0859694
-0.085679
-0.0861139
-0.0880111
-0.0922296
-0.0994493
-0.109987
-0.123765
-0.140365
-0.159142
-0.179339
-0.200206
-0.221078
-0.241408
-0.260764
-0.278817
-0.295308
-0.310035
-0.322831
-0.333561
-0.342113
-0.348397
-0.352341
-0.353892
-0.353014
-0.349701
-0.343933
-0.3357
-0.325042
-0.312007
-0.296658
-0.279081
-0.259403
-0.237805
-0.214538
-0.189959
-0.164556
-0.138973
-0.114013
-0.0905921
-0.0695798
-0.0517123
-0.0368449
-0.0254263
-0.0144563
-0.00503866
0.0039344
-0.0857208
-0.0853845
-0.0849214
-0.0841488
-0.0827943
-0.0809613
-0.0794553
-0.0795788
-0.082593
-0.0893107
-0.099975
-0.114328
-0.131749
-0.151419
-0.172455
-0.194031
-0.21543
-0.236072
-0.255503
-0.273375
-0.28942
-0.303434
-0.315256
-0.324759
-0.331847
-0.336444
-0.338498
-0.33797
-0.334849
-0.329131
-0.320795
-0.309876
-0.296428
-0.280513
-0.262221
-0.241687
-0.219099
-0.19473
-0.168958
-0.142298
-0.115421
-0.089143
-0.0643754
-0.0419622
-0.0225924
-0.00607955
0.00701098
0.0207593
0.03168
0.0475109
-0.083792
-0.0837165
-0.0835089
-0.0826052
-0.0802728
-0.0762869
-0.0714405
-0.0673967
-0.0659913
-0.0685879
-0.0758154
-0.0876137
-0.103413
-0.122337
-0.143388
-0.165579
-0.188029
-0.209999
-0.2309
-0.250278
-0.267786
-0.283166
-0.296224
-0.306816
-0.314833
-0.320197
-0.322854
-0.322768
-0.319924
-0.314332
-0.305972
-0.294876
-0.281102
-0.264719
-0.245824
-0.22456
-0.201127
-0.175809
-0.148999
-0.121218
-0.0931296
-0.0655211
-0.0392463
-0.0150702
0.00640718
0.0254294
0.0414006
0.0593828
0.0717191
0.0981786
-0.0817769
-0.0820287
-0.0821098
-0.0810199
-0.0776538
-0.071567
-0.063534
-0.0554812
-0.0497313
-0.0481771
-0.0518596
-0.060954
-0.074966
-0.0929833
-0.113902
-0.136594
-0.160022
-0.183293
-0.20568
-0.226615
-0.245664
-0.262506
-0.276906
-0.288691
-0.297743
-0.303975
-0.307334
-0.307787
-0.305318
-0.299943
-0.291664
-0.28051
-0.266543
-0.249846
-0.230525
-0.208732
-0.184679
-0.158653
-0.13104
-0.102337
-0.0731535
-0.0441916
-0.0161835
0.0102538
0.0346859
0.0575433
0.0784345
0.103205
0.120205
0.163251
-0.079462
-0.0800694
-0.0804362
-0.0789958
-0.0743966
-0.066187
-0.0552091
-0.0435509
-0.0338718
-0.0284886
-0.0288205
-0.0352899
-0.0475047
-0.0645429
-0.0852202
-0.108291
-0.132579
-0.157053
-0.180857
-0.203311
-0.223894
-0.242214
-0.257991
-0.271022
-0.281169
-0.288341
-0.292482
-0.293561
-0.29157
-0.286522
-0.278446
-0.267377
-0.253392
-0.236586
-0.217075
-0.195021
-0.170636
-0.144198
-0.11606
-0.0866536
-0.0564833
-0.0260958
0.00397463
0.0333414
0.0618236
0.0901711
0.11839
0.153571
0.18335
0.248038
-0.0769513
-0.0777999
-0.0782974
-0.0762517
-0.0702021
-0.0597747
-0.0461083
-0.0314537
-0.0185791
-0.0100455
-0.00755786
-0.0117531
-0.0223529
-0.0384572
-0.0588398
-0.0821715
-0.107169
-0.132687
-0.157758
-0.181601
-0.203613
-0.223337
-0.240443
-0.254697
-0.265941
-0.274074
-0.279038
-0.280808
-0.279383
-0.274781
-0.26704
-0.25621
-0.242388
-0.22569
-0.206244
-0.184208
-0.159783
-0.133218
-0.104805
-0.0748729
-0.0437656
-0.0117993
0.0207978
0.0540194
0.0881099
0.124261
0.162786
0.212442
0.259945
0.338514
-0.0755302
-0.0762279
-0.0763555
-0.0731307
-0.0652506
-0.052599
-0.036521
-0.0195264
-0.00439232
0.00638017
0.0108934
0.00836622
-0.0010002
-0.0163444
-0.0364425
-0.0599277
-0.0854513
-0.111787
-0.137885
-0.162886
-0.186116
-0.207061
-0.225347
-0.240708
-0.252968
-0.262014
-0.267787
-0.270263
-0.26945
-0.265381
-0.258111
-0.247683
-0.234183
-0.217756
-0.198553
-0.176731
-0.152464
-0.125954
-0.0974132
-0.067041
-0.0349785
-0.00123253
0.0344282
0.0726705
0.114662
0.162732
0.217949
0.289074
0.349442
0.424415
-0.0797039
-0.0790041
-0.0773947
-0.0717846
-0.0612375
-0.0459994
-0.0276748
-0.00886565
0.00764841
0.0196558
0.0253919
0.023856
0.0152358
0.00037014
-0.0195414
-0.0431301
-0.0690197
-0.0959401
-0.122789
-0.148655
-0.172811
-0.194702
-0.213917
-0.230168
-0.243258
-0.253066
-0.25953
-0.262627
-0.26237
-0.258799
-0.251977
-0.241995
-0.228928
-0.212858
-0.193944
-0.172362
-0.148275
-0.121838
-0.0931819
-0.0623683
-0.0293132
0.00634856
0.0454657
0.0897528
0.142129
0.207816
0.29161
0.403532
0.495797
0.60338
-0.103136
-0.0953152
-0.0868687
-0.0760799
-0.0617165
-0.0433855
-0.0227316
-0.00233318
0.0153621
0.0281436
0.0343218
0.0332101
0.0249998
0.0104813
-0.00919161
-0.0326845
-0.0586366
-0.0857736
-0.112974
-0.139298
-0.163987
-0.186455
-0.206266
-0.223107
-0.236767
-0.247115
-0.25408
-0.25764
-0.257807
-0.254623
-0.248154
-0.238485
-0.225715
-0.209952
-0.191324
-0.169967
-0.146032
-0.119643
-0.0908628
-0.0596295
-0.0256407
0.0118475
0.0543501
0.104788
0.168289
0.254349
0.375642
0.555691
0.767659
1.10782
-0.18997
-0.112214
-0.0806264
-0.0713974
-0.0581196
-0.0387464
-0.0170498
0.00395581
0.0217615
0.0341921
0.0398426
0.0382302
0.0296272
0.0148529
-0.00494573
-0.028471
-0.0544079
-0.0815211
-0.108716
-0.135067
-0.159821
-0.18239
-0.202331
-0.219327
-0.233158
-0.243688
-0.250841
-0.254591
-0.254948
-0.251954
-0.245673
-0.236189
-0.223601
-0.20802
-0.189566
-0.168369
-0.144565
-0.118248
-0.0894257
-0.0579376
-0.0233171
0.0154596
0.0603849
0.115201
0.186468
0.28653
0.435277
0.680342
1.07935
1.82851
)
;

boundaryField
{
    movingWall
    {
        type            zeroGradient;
    }
    fixedWalls
    {
        type            zeroGradient;
    }
    frontAndBack
    {
        type            empty;
    }
}


// ************************************************************************* //
