/*--------------------------------*- C++ -*----------------------------------*\
  =========                 |
  \\      /  F ield         | OpenFOAM: The Open Source CFD Toolbox
   \\    /   O peration     | Website:  https://openfoam.org
    \\  /    A nd           | Version:  7
     \\/     M anipulation  |
\*---------------------------------------------------------------------------*/
FoamFile
{
    version     2.0;
    format      ascii;
    class       surfaceScalarField;
    location    "1200";
    object      phi;
}
// * * * * * * * * * * * * * * * * * * * * * * * * * * * * * * * * * * * * * //

dimensions      [0 3 -1 0 0 0 0];

internalField   nonuniform List<scalar> 
4900
(
1.69998e-06
-1.70388e-06
6.2245e-06
-4.52451e-06
1.17171e-05
-5.4926e-06
1.65029e-05
-4.78586e-06
1.97502e-05
-3.24726e-06
2.13891e-05
-1.63893e-06
2.17674e-05
-3.78358e-07
2.12616e-05
5.05693e-07
2.0015e-05
1.24659e-06
1.78634e-05
2.15155e-06
1.44136e-05
3.44975e-06
9.17869e-06
5.23485e-06
1.66753e-06
7.5111e-06
-8.57191e-06
1.02394e-05
-2.18891e-05
1.33171e-05
-3.84467e-05
1.65576e-05
-5.81491e-05
1.97023e-05
-8.05605e-05
2.24113e-05
-0.000104842
2.42818e-05
-0.000129738
2.48952e-05
-0.000153619
2.3881e-05
-0.000174599
2.09801e-05
-0.000190696
1.60974e-05
-0.000200036
9.33975e-06
-0.000201097
1.06156e-06
-0.00019294
-8.15746e-06
-0.000175319
-1.76207e-05
-0.000148757
-2.65626e-05
-0.000114547
-3.42101e-05
-7.47152e-05
-3.98315e-05
-3.1914e-05
-4.28012e-05
1.07414e-05
-4.26554e-05
4.99942e-05
-3.92528e-05
8.29929e-05
-3.29987e-05
0.000107562
-2.45691e-05
0.000122437
-1.48752e-05
0.000127505
-5.0674e-06
0.000123846
3.65847e-06
0.000113459
1.03866e-05
9.87366e-05
1.47229e-05
8.20206e-05
1.6716e-05
6.5249e-05
1.67716e-05
4.97672e-05
1.54817e-05
3.63094e-05
1.34578e-05
2.51028e-05
1.12066e-05
1.60397e-05
9.06313e-06
8.89324e-06
7.14645e-06
3.59421e-06
5.29902e-06
5.05157e-07
3.08904e-06
5.05155e-07
4.475e-06
-6.1789e-06
1.38491e-05
-1.38986e-05
2.43111e-05
-1.59546e-05
3.28993e-05
-1.33741e-05
3.80014e-05
-8.3495e-06
3.92273e-05
-2.86489e-06
3.68587e-05
1.99015e-06
3.12023e-05
6.16192e-06
2.21501e-05
1.02987e-05
9.07383e-06
1.52276e-05
-9.02358e-06
2.1547e-05
-3.3243e-05
2.94541e-05
-6.44841e-05
3.87521e-05
-0.000103186
4.89415e-05
-0.00014912
5.92507e-05
-0.000201225
6.86622e-05
-0.000257553
7.60309e-05
-0.000315396
8.02537e-05
-0.000371554
8.04402e-05
-0.000422693
7.60342e-05
-0.000465675
6.68626e-05
-0.00049782
5.31254e-05
-0.000517075
3.53525e-05
-0.000522099
1.43637e-05
-0.000512348
-8.69015e-06
-0.000487912
-3.25929e-05
-0.000449429
-5.61038e-05
-0.000398104
-7.78883e-05
-0.000335765
-9.65487e-05
-0.000264886
-0.000110711
-0.000188557
-0.000119131
-0.000110353
-0.000120859
-3.41572e-05
-0.000115448
3.59572e-05
-0.000103113
9.63001e-05
-8.49119e-05
0.000144056
-6.2631e-05
0.000177302
-3.83131e-05
0.000195248
-1.42878e-05
0.000198489
7.14586e-06
0.000189122
2.40898e-05
0.000170295
3.55421e-05
0.000145601
4.14658e-05
0.000118448
4.26345e-05
9.16027e-05
4.03036e-05
6.69306e-05
3.58785e-05
4.54196e-05
3.05741e-05
2.74597e-05
2.51064e-05
1.33352e-05
1.94235e-05
3.75548e-06
1.26687e-05
4.26063e-06
5.98756e-06
-1.21665e-05
1.73374e-05
-2.52485e-05
2.88014e-05
-2.74187e-05
3.68213e-05
-2.13941e-05
3.95356e-05
-1.10639e-05
3.63555e-05
3.15106e-07
2.72179e-05
1.11276e-05
1.19155e-05
2.14642e-05
-1.03167e-05
3.25308e-05
-4.07559e-05
4.56667e-05
-8.07616e-05
6.15526e-05
-0.000131257
7.99494e-05
-0.000192307
9.98021e-05
-0.000262807
0.000119442
-0.000340412
0.000136855
-0.000421763
0.000150013
-0.000502944
0.000157212
-0.000580002
0.000157312
-0.000649392
0.00014983
-0.000708252
0.000134894
-0.000754496
0.000113107
-0.000786769
8.53978e-05
-0.000804308
5.2892e-05
-0.000806764
1.68198e-05
-0.000793999
-2.14557e-05
-0.000766026
-6.05661e-05
-0.00072316
-9.89689e-05
-0.00066614
-0.000134909
-0.000596198
-0.000166491
-0.000515176
-0.000191733
-0.0004256
-0.000208707
-0.000330672
-0.000215787
-0.000234173
-0.000211947
-0.000140236
-0.000197051
-5.30919e-05
-0.000172056
2.3293e-05
-0.000139016
8.59476e-05
-0.000100968
0.000133081
-6.14211e-05
0.000163726
-2.34992e-05
0.000178026
9.78992e-06
0.000177518
3.60495e-05
0.000165006
5.39777e-05
0.000144038
6.36028e-05
0.000118295
6.60464e-05
9.10386e-05
6.31353e-05
6.47419e-05
5.68708e-05
4.10643e-05
4.87839e-05
2.12074e-05
3.92804e-05
6.60705e-06
2.7269e-05
1.08677e-05
6.5087e-06
-1.86753e-05
1.75966e-05
-3.63365e-05
2.6951e-05
-3.67732e-05
3.0757e-05
-2.52002e-05
2.72087e-05
-7.51567e-06
1.56128e-05
1.19109e-05
-4.56612e-06
3.13065e-05
-3.43423e-05
5.12402e-05
-7.52386e-05
7.34271e-05
-0.000128732
9.91599e-05
-0.000195552
0.000128373
-0.000275119
0.000159516
-0.000365306
0.000189989
-0.000462625
0.000216761
-0.000562763
0.000236993
-0.000661271
0.000248521
-0.000754174
0.000250114
-0.000838331
0.00024147
-0.000911536
0.000223035
-0.000972382
0.00019574
-0.00102004
0.000160764
-0.00105402
0.000119379
-0.00107398
7.28519e-05
-0.00107959
2.24303e-05
-0.00107046
-3.05899e-05
-0.00104628
-8.47418e-05
-0.00100692
-0.000138331
-0.00095243
-0.000189398
-0.000883218
-0.000235703
-0.000800224
-0.000274727
-0.000705088
-0.000303842
-0.000600294
-0.000320581
-0.000489252
-0.000322989
-0.000376239
-0.000310064
-0.000266095
-0.0002822
-0.000163671
-0.00024144
-7.32808e-05
-0.000191358
1.80185e-06
-0.000136504
6.0002e-05
-8.16994e-05
0.000101016
-3.12245e-05
0.0001251
1.19655e-05
0.000133545
4.55335e-05
0.000128855
6.82927e-05
0.000114327
8.05744e-05
9.35433e-05
8.39185e-05
6.98671e-05
8.0547e-05
4.61143e-05
7.25367e-05
2.46354e-05
6.07593e-05
7.92801e-06
4.39764e-05
1.87957e-05
6.20531e-06
-2.48806e-05
1.48954e-05
-4.50267e-05
1.92057e-05
-4.10836e-05
1.54753e-05
-2.14699e-05
2.15746e-06
5.80205e-06
-2.16319e-05
3.57002e-05
-5.70697e-05
6.67442e-05
-0.000105882
0.000100053
-0.000169694
0.000137238
-0.000249066
0.000178532
-0.000342815
0.000222122
-0.000447923
0.000264624
-0.000560008
0.000302074
-0.000674127
0.00033088
-0.000785605
0.00034847
-0.000890621
0.000353537
-0.000986445
0.000345939
-0.00107136
0.000326389
-0.00114442
0.000296091
-0.00120512
0.000256443
-0.00125323
0.000208872
-0.0012886
0.000154749
-0.00131109
9.53387e-05
-0.00132051
3.18552e-05
-0.00131662
-3.44843e-05
-0.00129906
-0.000102302
-0.00126733
-0.000170056
-0.00122086
-0.000235874
-0.00115911
-0.000297448
-0.00108183
-0.000352008
-0.000989244
-0.000396431
-0.000882431
-0.000427394
-0.000763697
-0.000441724
-0.000636756
-0.000437005
-0.000506667
-0.000412288
-0.00037945
-0.000368657
-0.000261307
-0.000309501
-0.000157543
-0.000240267
-7.16844e-05
-0.000167558
-5.16832e-06
-9.77406e-05
4.25469e-05
-3.57498e-05
7.2706e-05
1.53743e-05
8.69125e-05
5.40863e-05
8.7694e-05
7.97928e-05
7.82594e-05
9.3353e-05
6.21208e-05
9.66856e-05
4.27387e-05
9.19187e-05
2.34075e-05
8.00905e-05
7.60297e-06
5.97809e-05
2.63987e-05
4.89845e-06
-2.97791e-05
8.88069e-06
-4.90091e-05
5.29018e-06
-3.74932e-05
-8.92301e-06
-7.25683e-06
-3.51033e-05
3.19823e-05
-7.44135e-05
7.50103e-05
-0.000128572
0.000120903
-0.000199327
0.000170808
-0.000287237
0.000225148
-0.000390778
0.000282073
-0.000506303
0.000337647
-0.000628751
0.000387072
-0.000752673
0.000425996
-0.000873162
0.000451369
-0.000986414
0.000461723
-0.00108987
0.000456993
-0.00118205
0.000438114
-0.00126224
0.000406579
-0.00133024
0.000364095
-0.00138619
0.000312388
-0.00143041
0.000253093
-0.00146331
0.000187657
-0.00148531
0.000117333
-0.00149672
4.32678e-05
-0.00149768
-3.35284e-05
-0.00148792
-0.000112059
-0.0014668
-0.000191177
-0.00143329
-0.000269384
-0.00138603
-0.000344703
-0.00132345
-0.00041459
-0.00124406
-0.00047582
-0.00114698
-0.000524473
-0.00103245
-0.000556259
-0.000902319
-0.000567133
-0.000760541
-0.000554067
-0.000613242
-0.000515956
-0.000468223
-0.00045452
-0.00033374
-0.00037475
-0.000216851
-0.000284447
-0.000121862
-0.00019273
-4.97324e-05
-0.00010788
1.17358e-06
-3.55317e-05
3.34581e-05
2.18018e-05
4.96725e-05
6.35783e-05
5.2776e-05
9.02496e-05
4.61825e-05
0.000103279
3.3595e-05
0.000104506
1.88741e-05
9.48114e-05
6.1142e-06
7.25407e-05
3.25128e-05
2.27485e-06
-3.2054e-05
-9.13423e-07
-4.5821e-05
-1.50033e-05
-2.34035e-05
-4.21871e-05
1.99268e-05
-8.36478e-05
7.34429e-05
-0.00014082
0.000132182
-0.000215403
0.000195486
-0.000308076
0.000263481
-0.000417302
0.000334374
-0.000539138
0.000403908
-0.000668036
0.000466545
-0.000798062
0.000517098
-0.000923947
0.000551881
-0.00104167
0.000569093
-0.00114858
0.000568629
-0.00124319
0.000551605
-0.00132493
0.000519853
-0.00139387
0.000475521
-0.00145058
0.000420804
-0.00149598
0.000357786
-0.00153118
0.000288297
-0.00155734
0.000213813
-0.00157551
0.000135504
-0.00158655
5.43037e-05
-0.00159091
-2.91602e-05
-0.00158858
-0.000114389
-0.00157904
-0.000200718
-0.00156116
-0.000287268
-0.00153308
-0.000372778
-0.00149233
-0.000455341
-0.00143605
-0.000532103
-0.00136135
-0.000599171
-0.00126585
-0.000651761
-0.00114847
-0.000684516
-0.0010104
-0.000692134
-0.000855852
-0.000670506
-0.000692232
-0.00061814
-0.000529572
-0.00053741
-0.000378885
-0.000435134
-0.00024966
-0.000321955
-0.000147374
-0.000210166
-7.24852e-05
-0.00011042
-2.16901e-05
-2.89933e-05
9.33341e-06
3.25548e-05
2.44435e-05
7.51395e-05
2.74238e-05
0.000100299
2.22318e-05
0.000109698
1.30474e-05
0.000103996
4.21326e-06
8.13748e-05
3.67261e-05
-1.91657e-06
-3.01375e-05
-1.46519e-05
-3.30858e-05
-4.1321e-05
3.26559e-06
-8.32152e-05
6.18209e-05
-0.000141346
0.000131574
-0.000217113
0.000207948
-0.000311297
0.00028967
-0.000422618
0.000374801
-0.000547183
0.000458939
-0.000679188
0.000535913
-0.000812246
0.000599603
-0.000940594
0.000645447
-0.00105979
0.000671074
-0.00116686
0.000676169
-0.0012602
0.000661961
-0.00133925
0.000630657
-0.00140435
0.000584954
-0.0014565
0.000527675
-0.00149721
0.00046151
-0.00152824
0.000388815
-0.0015514
0.000311459
-0.0015684
0.000230809
-0.0015807
0.00014781
-0.00158941
6.30123e-05
-0.00159521
-2.33631e-05
-0.00159837
-0.000111225
-0.00159869
-0.0002004
-0.00159524
-0.000290718
-0.0015863
-0.000381716
-0.00156934
-0.000472303
-0.00154095
-0.000560493
-0.00149691
-0.000643209
-0.00143261
-0.000716062
-0.0013439
-0.000773224
-0.00122823
-0.000807808
-0.00108586
-0.000812875
-0.000921064
-0.000782934
-0.000742701
-0.000715773
-0.000563533
-0.000614302
-0.000397937
-0.000487551
-0.0002583
-0.000349802
-0.00015139
-0.00021733
-7.68512e-05
-0.000103532
-2.92195e-05
-1.5077e-05
-2.06635e-06
4.79863e-05
9.9788e-06
8.82534e-05
1.17334e-05
0.000107944
7.79301e-06
0.000107936
2.60142e-06
8.65664e-05
3.93275e-05
-7.74356e-06
-2.2394e-05
-3.1896e-05
-8.93346e-06
-7.24932e-05
4.38627e-05
-0.000129793
0.000119121
-0.000204618
0.000206399
-0.000297698
0.000301028
-0.000408141
0.000400113
-0.000532439
0.0004991
-0.00066482
0.00059132
-0.000798551
0.000669644
-0.000927319
0.000728371
-0.00104611
0.000764236
-0.0011515
0.000776464
-0.0012416
0.000766272
-0.00131586
0.000736222
-0.00137483
0.000689631
-0.00141995
0.000630069
-0.00145324
0.000560963
-0.00147703
0.000485299
-0.00149364
0.000405428
-0.00150519
0.00032301
-0.00151349
0.000239105
-0.00151995
0.000154276
-0.00152561
6.86715e-05
-0.00153119
-1.77817e-05
-0.00153715
-0.000105266
-0.00154354
-0.000194014
-0.00154992
-0.000284334
-0.00155531
-0.00037633
-0.00155789
-0.000469722
-0.00155471
-0.000563674
-0.00154147
-0.000656445
-0.0015127
-0.000744833
-0.00146216
-0.00082376
-0.00138376
-0.000886211
-0.00127301
-0.000923624
-0.00112899
-0.000926953
-0.000956082
-0.000888684
-0.000764804
-0.00080558
-0.000571033
-0.000681322
-0.000392983
-0.000527853
-0.000246191
-0.000364122
-0.0001384
-0.000211323
-6.77047e-05
-8.57728e-05
-2.58955e-05
6.17717e-06
-4.31025e-06
6.66682e-05
3.87143e-06
9.9762e-05
4.28297e-06
0.000107525
1.71498e-06
8.91344e-05
4.10425e-05
-1.49338e-05
-7.46027e-06
-5.1664e-05
2.77967e-05
-0.000106486
9.8685e-05
-0.000178727
0.000191361
-0.000268735
0.000296408
-0.000375971
0.000408264
-0.000497568
0.00052171
-0.000628129
0.000629661
-0.0007608
0.00072399
-0.000888761
0.000797605
-0.00100635
0.00084596
-0.00110957
0.000867458
-0.00119618
0.000863067
-0.00126551
0.000835608
-0.00131832
0.000789026
-0.00135641
0.000727726
-0.00138233
0.000655992
-0.00139891
0.000577542
-0.00140888
0.000495267
-0.00141461
0.000411157
-0.001418
0.000326402
-0.00142049
0.000241587
-0.00142306
0.000156847
-0.00142642
7.20378e-05
-0.00143112
-1.30816e-05
-0.00143755
-9.88395e-05
-0.00144593
-0.000185629
-0.00145641
-0.000273862
-0.00146884
-0.000363899
-0.00148251
-0.000456054
-0.00149571
-0.000550469
-0.00150544
-0.00064672
-0.00150699
-0.000743278
-0.00149382
-0.000836933
-0.00145787
-0.000922157
-0.00139087
-0.00099063
-0.00128628
-0.00103154
-0.00114186
-0.00103311
-0.000962039
-0.000985403
-0.00075932
-0.000884041
-0.000553289
-0.000733884
-0.000366422
-0.000550989
-0.000217196
-0.000360549
-0.00011334
-0.000189629
-5.01867e-05
-5.6976e-05
-1.63364e-05
3.28179e-05
-1.28827e-06
8.47138e-05
2.74928e-06
0.000103487
1.64861e-06
9.0235e-05
4.26911e-05
-2.29884e-05
1.55281e-05
-7.24464e-05
7.72545e-05
-0.000140709
0.000166947
-0.000226262
0.000276914
-0.000328583
0.000398729
-0.000445546
0.000525227
-0.000572484
0.000648648
-0.000702762
0.000759939
-0.000829225
0.000850453
-0.000945565
0.000913945
-0.00104712
0.000947515
-0.00113115
0.000951486
-0.00119678
0.000928704
-0.00124485
0.000883669
-0.00127748
0.000821663
-0.0012977
0.000747943
-0.0013088
0.000667092
-0.00131389
0.000582634
-0.00131555
0.000496929
-0.0013157
0.000411301
-0.00131561
0.000326313
-0.00131606
0.000242035
-0.00131747
0.000158265
-0.00132014
7.47018e-05
-0.00132426
-8.96312e-06
-0.00133005
-9.30492e-05
-0.00133781
-0.000177863
-0.00134799
-0.000263685
-0.00136101
-0.00035088
-0.00137711
-0.000439957
-0.00139607
-0.000531502
-0.0014168
-0.000625989
-0.0014366
-0.000723486
-0.00145048
-0.000823045
-0.00145095
-0.000921693
-0.00142827
-0.00101331
-0.00137185
-0.00108795
-0.00127279
-0.00113216
-0.0011274
-0.0011308
-0.000940536
-0.0010709
-0.000727404
-0.000947016
-0.000511993
-0.0007664
-0.000321272
-0.00055127
-0.000175846
-0.000335054
-8.16165e-05
-0.000151206
-2.96166e-05
-1.9182e-05
-5.39346e-06
6.04907e-05
2.49324e-06
9.56003e-05
2.1814e-06
9.05469e-05
4.48725e-05
-3.11655e-05
4.66936e-05
-9.24304e-05
0.000138519
-0.000172424
0.000246941
-0.000268676
0.000373166
-0.000379528
0.00050958
-0.000501296
0.000646995
-0.000627988
0.00077534
-0.000752428
0.000884379
-0.000867774
0.000965799
-0.000968639
0.00101481
-0.00105164
0.00103052
-0.00111552
0.00101536
-0.00116099
0.000974174
-0.00119039
0.000913073
-0.00120711
0.000838386
-0.0012149
0.000755732
-0.00121724
0.00066943
-0.00121692
0.000582312
-0.00121587
0.000495881
-0.00121524
0.000410668
-0.00121555
0.000326624
-0.00121694
0.000243428
-0.00121937
0.000160696
-0.00122276
7.80877e-05
-0.00122705
-4.67359e-06
-0.00123231
-8.77876e-05
-0.00123878
-0.000171393
-0.00124687
-0.000255598
-0.00125714
-0.00034061
-0.00127032
-0.000426778
-0.00128718
-0.000514638
-0.00130819
-0.000604978
-0.00133289
-0.000698783
-0.00135911
-0.000796828
-0.00138199
-0.00089881
-0.00139326
-0.00100204
-0.00138132
-0.00109989
-0.00133302
-0.00118047
-0.00123704
-0.00122678
-0.00108851
-0.00121943
-0.000893389
-0.00114213
-0.000670626
-0.000989163
-0.000449605
-0.000772291
-0.000261707
-0.000522952
-0.000127797
-0.000285116
-4.91552e-05
-9.78236e-05
-1.12756e-05
2.26111e-05
2.15855e-06
8.21661e-05
2.88102e-06
8.98244e-05
4.77535e-05
-3.859e-05
8.52836e-05
-0.000109888
0.000209817
-0.000199148
0.000336201
-0.00030283
0.000476847
-0.000418076
0.000624826
-0.00053993
0.000768849
-0.00066165
0.00089706
-0.000776119
0.000998849
-0.000877257
0.00106694
-0.000960899
0.00109845
-0.00102515
0.00109477
-0.0010704
0.0010606
-0.00109892
0.0010027
-0.00111434
0.000928496
-0.00112079
0.000844829
-0.00112211
0.000757051
-0.00112134
0.000668664
-0.0011205
0.000581469
-0.00112063
0.000496016
-0.00112209
0.000412123
-0.00112478
0.000329315
-0.00112844
0.000247085
-0.00113277
0.000165027
-0.00113753
8.28545e-05
-0.0011426
3.90714e-07
-0.00114795
-8.24398e-05
-0.00115368
-0.000165656
-0.00116004
-0.000249245
-0.00116742
-0.000333226
-0.00117651
-0.000417684
-0.00118827
-0.00050288
-0.00120384
-0.000589412
-0.0012243
-0.000678325
-0.00125005
-0.000771072
-0.0012797
-0.000869167
-0.00130855
-0.000973191
-0.00132752
-0.00108092
-0.0013231
-0.00118488
-0.00127943
-0.00127046
-0.00118272
-0.00131615
-0.00102747
-0.00129738
-0.000822108
-0.00119452
-0.000591022
-0.00100338
-0.000369973
-0.000744002
-0.000193733
-0.000461356
-7.99938e-05
-0.000211562
-2.19495e-05
-3.54332e-05
2.47219e-07
5.99693e-05
3.27292e-06
8.67987e-05
5.10264e-05
-4.44945e-05
0.000129778
-0.000123388
0.000288711
-0.000218963
0.000431776
-0.000326544
0.000584428
-0.000442191
0.000740474
-0.000560094
0.000886752
-0.000673304
0.00101027
-0.000775229
0.00110077
-0.000860861
0.00115257
-0.000927458
0.00116505
-0.000974733
0.00114205
-0.00100464
0.00109051
-0.00102077
0.00101883
-0.0010275
0.000935227
-0.00102904
0.000846366
-0.00102873
0.000756738
-0.00102873
0.000668666
-0.00103009
0.000582835
-0.00103305
0.000498973
-0.00103736
0.000416436
-0.00104262
0.000334571
-0.00104842
0.000252885
-0.00105445
0.00017106
-0.00106052
8.89194e-05
-0.00106651
6.3864e-06
-0.00107241
-7.65428e-05
-0.00107823
-0.000159838
-0.00108403
-0.000243438
-0.00109
-0.000327257
-0.00109648
-0.00041121
-0.00110406
-0.000495295
-0.00111377
-0.000579708
-0.00112706
-0.000665034
-0.00114564
-0.000752487
-0.00117074
-0.000844067
-0.00120173
-0.000942201
-0.00123422
-0.00104843
-0.00125823
-0.00116087
-0.00125794
-0.00127074
-0.00121446
-0.00135963
-0.00111189
-0.00139995
-0.000945423
-0.00136099
-0.000728054
-0.00122074
-0.000491725
-0.000980332
-0.000279059
-0.000674022
-0.000125358
-0.000365264
-3.96799e-05
-0.000121111
-4.39306e-06
2.46825e-05
3.03137e-06
7.93742e-05
5.40578e-05
-4.83083e-05
0.000178086
-0.000131948
0.00037235
-0.00023069
0.000530518
-0.000338729
0.000692467
-0.000451287
0.000853031
-0.000562135
0.000997601
-0.00066457
0.0011127
-0.000752846
0.00118905
-0.000823224
0.00122295
-0.000874458
0.00121628
-0.00090779
0.00117538
-0.000926475
0.00110919
-0.000934913
0.00102727
-0.000937599
0.000937913
-0.000938233
0.000847001
-0.000939247
0.000757751
-0.000941797
0.000671216
-0.000946084
0.000587122
-0.000951778
0.000504667
-0.000958371
0.000423029
-0.000965403
0.000341603
-0.000972547
0.000260029
-0.000979615
0.000178128
-0.000986526
9.58297e-05
-0.000993259
1.31199e-05
-0.000999817
-6.99853e-05
-0.0010062
-0.000153456
-0.0010124
-0.000237242
-0.0010184
-0.000321254
-0.00102424
-0.00040537
-0.00103009
-0.000489448
-0.00103642
-0.000573374
-0.00104423
-0.00065722
-0.00105518
-0.000741543
-0.00107148
-0.000827764
-0.00109523
-0.00091845
-0.00112664
-0.00101703
-0.00116137
-0.00112614
-0.00118809
-0.00124402
-0.00118816
-0.00135957
-0.0011395
-0.00144861
-0.00102494
-0.00147554
-0.000842543
-0.00140315
-0.000612943
-0.00120993
-0.000377894
-0.000909071
-0.000185664
-0.000557494
-6.59167e-05
-0.000240859
-1.2337e-05
-2.88972e-05
2.0408e-06
6.49965e-05
5.60986e-05
-4.97018e-05
0.000227788
-0.000135077
0.000457725
-0.000233903
0.000629344
-0.000339319
0.000797884
-0.000445992
0.000959703
-0.000547676
0.00109929
-0.000638241
0.00120327
-0.00071299
0.0012638
-0.000769513
0.00127947
-0.000807985
0.00125475
-0.000830919
0.00119831
-0.000842422
0.00112069
-0.000847115
0.00103196
-0.000849062
0.00093986
-0.000851081
0.000849019
-0.000854582
0.000761252
-0.000859857
0.000676491
-0.000866549
0.000593814
-0.000874086
0.000512204
-0.000881958
0.000430901
-0.000889828
0.000349473
-0.000897529
0.00026773
-0.000905021
0.000185621
-0.000912334
0.000103142
-0.000919516
2.03019e-05
-0.000926609
-6.28918e-05
-0.000933629
-0.000146436
-0.000940551
-0.000230319
-0.000947301
-0.000314503
-0.000953765
-0.000398906
-0.000959833
-0.00048338
-0.000965501
-0.000567706
-0.000971057
-0.000651664
-0.000977393
-0.000735207
-0.000986327
-0.00081883
-0.00100063
-0.000904151
-0.0010232
-0.000994457
-0.00105491
-0.00109443
-0.00109111
-0.00120782
-0.00111835
-0.00133232
-0.00111437
-0.00145259
-0.00105396
-0.00153595
-0.000920502
-0.00153661
-0.000718521
-0.00141191
-0.000480198
-0.00114739
-0.000258215
-0.000779477
-0.00010148
-0.000397594
-2.37477e-05
-0.000106629
3.08048e-07
4.09407e-05
5.64067e-05
-4.85885e-05
0.000276377
-0.000132745
0.000541882
-0.000228838
0.000725437
-0.00032906
0.000898106
-0.000427806
0.00105845
-0.000519132
0.00119061
-0.000597697
0.00128183
-0.000659924
0.00132603
-0.00070467
0.00132422
-0.000733306
0.00128339
-0.000749229
0.00121424
-0.000756886
0.00112835
-0.000760605
0.00103568
-0.000763665
0.00094292
-0.000767893
0.000853247
-0.000773823
0.000767182
-0.000781168
0.000683836
-0.000789331
0.000601978
-0.000797756
0.000520628
-0.000806078
0.000439224
-0.00081414
0.000357534
-0.000821926
0.000275517
-0.000829505
0.000193199
-0.000836966
0.000110603
-0.000844394
2.77301e-05
-0.000851853
-5.54332e-05
-0.000859372
-0.000138917
-0.000866942
-0.000222749
-0.000874505
-0.00030694
-0.000881937
-0.000391475
-0.000889044
-0.000476273
-0.000895583
-0.000561167
-0.000901368
-0.00064588
-0.000906506
-0.000730068
-0.000911807
-0.000813529
-0.000919245
-0.000896714
-0.000932128
-0.000981574
-0.000954192
-0.00107236
-0.000986734
-0.00117528
-0.00102396
-0.0012951
-0.00104902
-0.00142753
-0.00103518
-0.00154979
-0.000955063
-0.00161672
-0.000796037
-0.00157094
-0.000574248
-0.00136918
-0.00033718
-0.00101654
-0.000146105
-0.00058867
-3.90016e-05
-0.000213732
-2.30673e-06
4.24574e-06
5.40999e-05
-4.50878e-05
0.000321464
-0.000125295
0.000622089
-0.000216226
0.000816368
-0.000309252
0.000991132
-0.000398737
0.00114793
-0.000479264
0.00127114
-0.000546388
0.00134896
-0.00059762
0.00137726
-0.000632902
0.0013595
-0.00065448
0.00130497
-0.000666193
0.00122595
-0.000672368
0.00113453
-0.000676699
0.00104001
-0.000681552
0.000947773
-0.000687878
0.000859573
-0.0006956
0.000774904
-0.000704161
0.000692397
-0.000712966
0.000610783
-0.00072161
0.000529272
-0.000729917
0.00044753
-0.000737881
0.000365499
-0.000745591
0.000283227
-0.000753161
0.000200769
-0.0007607
0.000118143
-0.000768295
3.53245e-05
-0.000776008
-4.772e-05
-0.000783874
-0.000131051
-0.000791902
-0.00021472
-0.000800068
-0.000298774
-0.000808293
-0.000383249
-0.000816421
-0.000468146
-0.000824192
-0.000553395
-0.00083126
-0.000638811
-0.000837287
-0.000724042
-0.000842212
-0.000808604
-0.000846779
-0.000892146
-0.000853219
-0.000975134
-0.000865522
-0.00106006
-0.000888203
-0.0011526
-0.000922397
-0.00126091
-0.000959811
-0.00139012
-0.000978565
-0.00153103
-0.000947042
-0.00164825
-0.000838278
-0.0016797
-0.000649438
-0.00155802
-0.000414581
-0.0012514
-0.000197745
-0.000805506
-5.87584e-05
-0.000352719
-5.87555e-06
-4.86371e-05
4.82244e-05
-3.94725e-05
0.000360937
-0.000113326
0.000695942
-0.000197108
0.000900149
-0.000281486
0.00107551
-0.000360973
0.00122742
-0.000430815
0.00134098
-0.00048748
0.00140562
-0.000529439
0.00141922
-0.000557464
0.00138752
-0.00057431
0.00132181
-0.000583854
0.00123549
-0.000589968
0.00114064
-0.000595556
0.0010456
-0.000602139
0.000954355
-0.000610019
0.000867453
-0.000618791
0.000783676
-0.00062786
0.000701466
-0.000636765
0.000619688
-0.000645288
0.000537795
-0.000653411
0.000455653
-0.000661227
0.000373315
-0.000668867
0.000290867
-0.000676453
0.000208356
-0.000684087
0.000125776
-0.00069184
4.30777e-05
-0.000699766
-3.97938e-05
-0.000707896
-0.000122922
-0.000716246
-0.00020637
-0.000724814
-0.000290206
-0.000733564
-0.000374499
-0.000742407
-0.000459302
-0.000751167
-0.000544636
-0.00075954
-0.000630438
-0.000767087
-0.000716495
-0.000773327
-0.000802364
-0.000778074
-0.000887399
-0.000782118
-0.00097109
-0.00078811
-0.00105407
-0.000800886
-0.00113982
-0.000825595
-0.0012362
-0.000862171
-0.00135354
-0.000897712
-0.00149549
-0.000903465
-0.00164249
-0.000844037
-0.00173913
-0.000698509
-0.00170355
-0.00048219
-0.00146772
-0.000252317
-0.00103538
-8.31647e-05
-0.000521871
-1.03786e-05
-0.000121423
3.78458e-05
-3.21143e-05
0.000393051
-9.75856e-05
0.000761414
-0.000172669
0.000975233
-0.000247432
0.00115027
-0.00031664
0.00129663
-0.000376269
0.00140061
-0.000423636
0.00145299
-0.000457991
0.00145357
-0.000480646
0.00141018
-0.000494514
0.00133568
-0.000503193
0.00124417
-0.000509916
0.00114736
-0.000516801
0.00105249
-0.000524695
0.000962249
-0.000533501
0.00087626
-0.00054271
0.000792885
-0.000551822
0.000710578
-0.000560551
0.000628418
-0.000568838
0.000546082
-0.000576765
0.00046358
-0.000584472
0.000381022
-0.000592093
0.000298488
-0.000599738
0.000216002
-0.000607493
0.000133531
-0.000615414
5.09992e-05
-0.000623547
-3.1661e-05
-0.000631915
-0.000114554
-0.000640533
-0.000197752
-0.000649406
-0.000281333
-0.00065852
-0.000365384
-0.000667835
-0.000449988
-0.000677253
-0.000535218
-0.00068658
-0.000621112
-0.000695466
-0.000707609
-0.000703383
-0.000794447
-0.000709732
-0.00088105
-0.000714259
-0.000966563
-0.000717951
-0.00105037
-0.000724176
-0.0011336
-0.000738837
-0.00122154
-0.000767207
-0.00132517
-0.000806027
-0.00145667
-0.000834898
-0.00161362
-0.000817322
-0.00175671
-0.000718569
-0.0018023
-0.000533394
-0.0016529
-0.000304535
-0.00126424
-0.000111209
-0.000715197
-1.58187e-05
-0.000216814
2.20271e-05
-2.34372e-05
0.000416488
-7.88794e-05
0.000816856
-0.000144108
0.00104046
-0.000208678
0.00121484
-0.000267645
0.0013556
-0.000317711
0.00145068
-0.000356941
0.00149222
-0.000385152
0.00148178
-0.000403908
0.00142893
-0.000415994
0.00134777
-0.000424518
0.0012527
-0.000432013
0.00115486
-0.000439919
0.00106039
-0.000448613
0.000970943
-0.000457809
0.000885455
-0.000467032
0.000802108
-0.00047593
0.000719476
-0.000484375
0.000636863
-0.000492413
0.00055412
-0.000500179
0.000471346
-0.000507816
0.000388659
-0.000515448
0.00030612
-0.000523167
0.000223721
-0.000531045
0.000141409
-0.000539133
5.90874e-05
-0.000547472
-2.33227e-05
-0.000556077
-0.000105948
-0.000564961
-0.000188868
-0.000574126
-0.000272169
-0.000583563
-0.000355946
-0.000593252
-0.000440299
-0.000603142
-0.000525328
-0.000613126
-0.000611128
-0.000622982
-0.000697752
-0.000632309
-0.00078512
-0.000640482
-0.000872878
-0.000646794
-0.000960251
-0.000651031
-0.00104614
-0.000654661
-0.00112997
-0.000662173
-0.00121402
-0.000680593
-0.00130675
-0.000713976
-0.00142329
-0.000752587
-0.00157501
-0.000765561
-0.00174373
-0.000710881
-0.00185698
-0.000564347
-0.00179943
-0.000349361
-0.00147922
-0.000140897
-0.000923661
-2.20939e-05
-0.000335616
-6.68533e-08
-1.3882e-05
0.00043037
-5.80056e-05
0.00086098
-0.000112552
0.00109501
-0.000166637
0.00126893
-0.000215591
0.00140455
-0.000256791
0.00149188
-0.000288923
0.00152435
-0.000312161
0.00150502
-0.000328076
0.00144485
-0.000339108
0.0013588
-0.000347764
0.00126135
-0.000355909
0.001163
-0.00036445
0.00106893
-0.000373479
0.000979971
-0.000382666
0.000894643
-0.000391643
0.000811085
-0.000400202
0.000728036
-0.00040833
0.00064499
-0.000416132
0.000561922
-0.000423754
0.000478968
-0.000431331
0.000396236
-0.000438967
0.000313756
-0.000446743
0.000231497
-0.000454723
0.000149389
-0.00046296
6.73245e-05
-0.000471495
-1.47873e-05
-0.000480343
-9.71011e-05
-0.000489509
-0.000179702
-0.000498991
-0.000262687
-0.000508777
-0.00034616
-0.000518848
-0.000430228
-0.000529172
-0.000515003
-0.00053969
-0.000600611
-0.000550274
-0.000687168
-0.000560664
-0.00077473
-0.000570379
-0.000863162
-0.000578685
-0.000951945
-0.000584814
-0.00104001
-0.000588779
-0.001126
-0.000592957
-0.00120985
-0.000603429
-0.00129628
-0.000627859
-0.00139886
-0.000666157
-0.00153671
-0.000697506
-0.00171238
-0.000679795
-0.00187469
-0.000574224
-0.001905
-0.000383082
-0.00167037
-0.000169651
-0.00113709
-2.94148e-05
-0.000475852
-2.94816e-05
-3.86861e-06
0.000434239
-3.57285e-05
0.000892839
-7.9007e-05
0.00113829
-0.000122512
0.00131243
-0.000161765
0.0014438
-0.000194745
0.00152486
-0.000220626
0.00155023
-0.000239758
0.00152415
-0.000253527
0.00145862
-0.000263884
0.00136916
-0.000272699
0.00127017
-0.000281247
0.00117155
-0.000290045
0.00107773
-0.00029904
0.000988967
-0.000307948
0.00090355
-0.000316523
0.00081966
-0.00032468
0.000736193
-0.000332474
0.000652785
-0.000340037
0.000569485
-0.000347506
0.000486437
-0.000354999
0.00040373
-0.000362608
0.000321365
-0.000370403
0.000239291
-0.000378448
0.000157434
-0.000386805
7.56816e-05
-0.00039552
-6.07198e-06
-0.000404609
-8.80118e-05
-0.000414076
-0.000170235
-0.000423908
-0.000252854
-0.00043409
-0.000335978
-0.000444597
-0.00041972
-0.000455402
-0.000504198
-0.000466463
-0.00058955
-0.000477703
-0.000675928
-0.000488961
-0.000763471
-0.000499913
-0.00085221
-0.000509975
-0.000941884
-0.000518295
-0.00103169
-0.000524139
-0.00112016
-0.000528096
-0.00120589
-0.000534087
-0.00129029
-0.000550048
-0.0013829
-0.00058233
-0.00150443
-0.000621424
-0.00167329
-0.000631344
-0.00186477
-0.000564744
-0.0019716
-0.000403813
-0.0018313
-0.000195029
-0.00134588
-3.78443e-05
-0.000633037
-6.73259e-05
6.06568e-06
0.000428173
-1.27169e-05
0.000911622
-4.43656e-05
0.00116993
-7.72939e-05
0.00134536
-0.000107166
0.00147368
-0.000132458
0.00155015
-0.000152717
0.00157049
-0.000168327
0.00153976
-0.000180353
0.00147065
-0.000190179
0.00137898
-0.000199045
0.00127903
-0.000207723
0.00118023
-0.000216458
0.00108647
-0.000225148
0.000997657
-0.000233594
0.000911996
-0.00024167
0.000827736
-0.000249379
0.000743901
-0.000256816
0.000660222
-0.000264112
0.000576781
-0.000271392
0.000493717
-0.000278759
0.000411097
-0.000286294
0.0003289
-0.000294063
0.000247061
-0.000302131
0.000165502
-0.000310572
8.41231e-05
-0.000319442
2.79834e-06
-0.000328767
-7.86869e-05
-0.000338546
-0.000160456
-0.00034876
-0.00024264
-0.000359384
-0.000325354
-0.000370392
-0.000408713
-0.000381752
-0.000492839
-0.000393428
-0.000577874
-0.000405365
-0.00066399
-0.000417459
-0.000751377
-0.000429494
-0.000840175
-0.000441051
-0.000930327
-0.000451412
-0.00102133
-0.000459641
-0.00111193
-0.000465263
-0.00120027
-0.000470039
-0.00128551
-0.00048017
-0.00137277
-0.000504716
-0.00147988
-0.00054391
-0.0016341
-0.000571905
-0.00183678
-0.000539322
-0.00200418
-0.000411448
-0.00195917
-0.000215268
-0.00154206
-4.69584e-05
-0.000801347
-0.000114284
1.53127e-05