/*--------------------------------*- C++ -*----------------------------------*\
  =========                 |
  \\      /  F ield         | OpenFOAM: The Open Source CFD Toolbox
   \\    /   O peration     | Website:  https://openfoam.org
    \\  /    A nd           | Version:  7
     \\/     M anipulation  |
\*---------------------------------------------------------------------------*/
FoamFile
{
    version     2.0;
    format      ascii;
    class       volVectorField;
    location    "1200";
    object      U;
}
// * * * * * * * * * * * * * * * * * * * * * * * * * * * * * * * * * * * * * //

dimensions      [0 1 -1 0 0 0 0];

internalField   nonuniform List<vector> 
2500
(
(0.000207757 -0.000200971 0)
(0.00186663 -0.000570806 0)
(0.00447462 -0.000697937 0)
(0.00716342 -0.000600125 0)
(0.00922947 -0.000419014 0)
(0.0104507 -0.000264347 0)
(0.0109304 -0.000188017 0)
(0.0108813 -0.000185892 0)
(0.0104507 -0.000219879 0)
(0.00963416 -0.000245439 0)
(0.00828242 -0.000228685 0)
(0.00616314 -0.000150762 0)
(0.00301904 -2.62814e-06 0)
(-0.00139363 0.000221098 0)
(-0.00727951 0.000523558 0)
(-0.0147711 0.000908291 0)
(-0.0238909 0.00137531 0)
(-0.0345089 0.00191298 0)
(-0.0463072 0.0024881 0)
(-0.0587598 0.00303837 0)
(-0.0711383 0.00347401 0)
(-0.082549 0.00369042 0)
(-0.0920029 0.00358917 0)
(-0.0985173 0.00310508 0)
(-0.101227 0.00223239 0)
(-0.0994579 0.00102912 0)
(-0.0929419 -0.000373874 0)
(-0.0817521 -0.001811 0)
(-0.0663562 -0.00310875 0)
(-0.047611 -0.00410019 0)
(-0.0267354 -0.00464029 0)
(-0.00521145 -0.00460644 0)
(0.015435 -0.00393649 0)
(0.0337338 -0.00278532 0)
(0.0483778 -0.00137237 0)
(0.0584115 0.00012464 0)
(0.0634543 0.00149595 0)
(0.0637189 0.00253348 0)
(0.0600113 0.00311135 0)
(0.053497 0.00322454 0)
(0.0454079 0.00298632 0)
(0.0368473 0.00254959 0)
(0.0286522 0.00204875 0)
(0.0213427 0.00157443 0)
(0.0151485 0.00117432 0)
(0.0100807 0.000863494 0)
(0.00602954 0.000631305 0)
(0.00290146 0.000436078 0)
(0.000795485 0.000192837 0)
(-8.19968e-05 -8.7396e-05 0)
(0.000566653 -0.00181819 0)
(0.0043749 -0.00431659 0)
(0.00958246 -0.00511663 0)
(0.0146041 -0.00444058 0)
(0.0181616 -0.00299817 0)
(0.0197682 -0.0014576 0)
(0.0194624 -0.000192234 0)
(0.0174556 0.00076589 0)
(0.0138327 0.0016256 0)
(0.00840483 0.00266565 0)
(0.000735213 0.0041033 0)
(-0.00973246 0.00604448 0)
(-0.0235273 0.00849339 0)
(-0.0410117 0.0113829 0)
(-0.0622659 0.0145748 0)
(-0.0869825 0.0178431 0)
(-0.114404 0.0208676 0)
(-0.143335 0.0232559 0)
(-0.172254 0.0245993 0)
(-0.19948 0.0245406 0)
(-0.223358 0.0228328 0)
(-0.242406 0.0193762 0)
(-0.255425 0.0142351 0)
(-0.26156 0.00764198 0)
(-0.260335 -1.33673e-05 0)
(-0.251684 -0.00821471 0)
(-0.235799 -0.0163916 0)
(-0.213129 -0.0239904 0)
(-0.184442 -0.0304478 0)
(-0.150825 -0.03523 0)
(-0.113688 -0.0378748 0)
(-0.0747285 -0.0380387 0)
(-0.0358574 -0.0355768 0)
(0.000991359 -0.030672 0)
(0.033973 -0.023823 0)
(0.0614107 -0.0157557 0)
(0.0819867 -0.00729112 0)
(0.0949797 0.000688062 0)
(0.100255 0.00733853 0)
(0.0984261 0.012078 0)
(0.0909484 0.0147089 0)
(0.0796078 0.0154329 0)
(0.0662303 0.0147145 0)
(0.0524141 0.0131074 0)
(0.0393373 0.0111173 0)
(0.0276944 0.00911059 0)
(0.017774 0.00724911 0)
(0.00968266 0.00543496 0)
(0.00372645 0.00334348 0)
(0.000329333 0.000918609 0)
(0.000785744 -0.00449543 0)
(0.00568896 -0.00969499 0)
(0.0117182 -0.010917 0)
(0.0169067 -0.00900545 0)
(0.0197637 -0.00542349 0)
(0.0197122 -0.00146907 0)
(0.0166697 0.00215345 0)
(0.0106343 0.00542417 0)
(0.00138047 0.00878223 0)
(-0.0116236 0.012794 0)
(-0.0290908 0.0178456 0)
(-0.0516489 0.024014 0)
(-0.0796033 0.0310878 0)
(-0.112724 0.0386033 0)
(-0.150138 0.0458802 0)
(-0.190368 0.0520997 0)
(-0.231527 0.0564381 0)
(-0.271579 0.0582094 0)
(-0.3086 0.0569673 0)
(-0.340963 0.0525459 0)
(-0.367434 0.0450443 0)
(-0.387164 0.0347778 0)
(-0.399642 0.0222193 0)
(-0.404609 0.0079498 0)
(-0.40199 -0.00738098 0)
(-0.391757 -0.0230919 0)
(-0.37395 -0.0384716 0)
(-0.34884 -0.0527295 0)
(-0.316913 -0.0650309 0)
(-0.278931 -0.074539 0)
(-0.235987 -0.0804802 0)
(-0.189519 -0.0822426 0)
(-0.141288 -0.0794955 0)
(-0.0932953 -0.072296 0)
(-0.0476525 -0.0611919 0)
(-0.00635561 -0.0471879 0)
(0.0288721 -0.0315753 0)
(0.056673 -0.0158017 0)
(0.0763553 -0.00115736 0)
(0.0876456 0.0111614 0)
(0.0908063 0.0202466 0)
(0.0870908 0.0257347 0)
(0.0782045 0.0278577 0)
(0.0660372 0.0273051 0)
(0.052389 0.0249756 0)
(0.0387212 0.0217246 0)
(0.0260341 0.0181225 0)
(0.0149681 0.0142397 0)
(0.0062566 0.00958351 0)
(0.00070524 0.00358696 0)
(0.00091774 -0.00772721 0)
(0.00606848 -0.0155925 0)
(0.0115462 -0.0165376 0)
(0.0151634 -0.0124511 0)
(0.0154169 -0.00573257 0)
(0.011748 0.00170101 0)
(0.00393213 0.00894429 0)
(-0.00837959 0.0161058 0)
(-0.0258524 0.0239485 0)
(-0.0493018 0.0332233 0)
(-0.0793651 0.04421 0)
(-0.11614 0.0565678 0)
(-0.158958 0.0694207 0)
(-0.206366 0.0815459 0)
(-0.256325 0.0916145 0)
(-0.306551 0.0984408 0)
(-0.354871 0.101177 0)
(-0.399476 0.099401 0)
(-0.439033 0.0931002 0)
(-0.472666 0.0825758 0)
(-0.49985 0.068327 0)
(-0.520284 0.0509519 0)
(-0.533779 0.0310828 0)
(-0.540171 0.009355 0)
(-0.539296 -0.0135747 0)
(-0.530968 -0.036975 0)
(-0.515066 -0.0599922 0)
(-0.491565 -0.0816624 0)
(-0.460561 -0.100927 0)
(-0.422374 -0.116644 0)
(-0.377633 -0.12767 0)
(-0.327353 -0.133004 0)
(-0.272997 -0.131958 0)
(-0.216502 -0.124328 0)
(-0.160188 -0.110543 0)
(-0.106535 -0.0917121 0)
(-0.0578902 -0.0695388 0)
(-0.016124 -0.0460258 0)
(0.0175689 -0.0230869 0)
(0.0425982 -0.00246483 0)
(0.058902 0.0146035 0)
(0.06674 0.0271945 0)
(0.0672236 0.0349331 0)
(0.0619082 0.0381609 0)
(0.0525834 0.037782 0)
(0.0410406 0.0349318 0)
(0.0288309 0.0305678 0)
(0.0171895 0.025032 0)
(0.00742125 0.0177404 0)
(0.000862106 0.00736617 0)
(0.000999779 -0.0110184 0)
(0.00561074 -0.0208276 0)
(0.0092284 -0.0203477 0)
(0.00967675 -0.0129007 0)
(0.00561761 -0.00193405 0)
(-0.00346776 0.0101293 0)
(-0.0180441 0.0223887 0)
(-0.0388669 0.0352879 0)
(-0.0668702 0.0497668 0)
(-0.102706 0.0663509 0)
(-0.146271 0.0846676 0)
(-0.196492 0.103486 0)
(-0.251429 0.121075 0)
(-0.308634 0.135641 0)
(-0.365601 0.145699 0)
(-0.420152 0.150297 0)
(-0.47064 0.149067 0)
(-0.515984 0.142137 0)
(-0.555553 0.12996 0)
(-0.589021 0.113155 0)
(-0.616228 0.0923911 0)
(-0.637095 0.0683362 0)
(-0.651559 0.041627 0)
(-0.659531 0.0128793 0)
(-0.660906 -0.0172535 0)
(-0.655566 -0.0480283 0)
(-0.643297 -0.0785875 0)
(-0.623806 -0.107937 0)
(-0.596802 -0.134898 0)
(-0.562068 -0.158097 0)
(-0.519557 -0.176057 0)
(-0.469549 -0.187326 0)
(-0.412851 -0.190654 0)
(-0.350952 -0.185256 0)
(-0.286059 -0.171111 0)
(-0.221003 -0.149157 0)
(-0.158946 -0.121286 0)
(-0.102895 -0.0900991 0)
(-0.0551398 -0.0584484 0)
(-0.0168667 -0.0288531 0)
(0.0117987 -0.00308896 0)
(0.031236 0.0176424 0)
(0.0419985 0.0326709 0)
(0.0452903 0.0418424 0)
(0.042631 0.0456952 0)
(0.0357468 0.0452977 0)
(0.0264008 0.0417592 0)
(0.0162512 0.0356001 0)
(0.00711001 0.0261579 0)
(0.000796507 0.0113833 0)
(0.000995729 -0.0139232 0)
(0.00416145 -0.0242942 0)
(0.00458003 -0.0208772 0)
(0.000393953 -0.00872437 0)
(-0.00946974 0.00766265 0)
(-0.0255735 0.0256021 0)
(-0.0486606 0.0444925 0)
(-0.0797112 0.065007 0)
(-0.119439 0.0878021 0)
(-0.167662 0.112564 0)
(-0.223034 0.137839 0)
(-0.283252 0.161471 0)
(-0.345549 0.181242 0)
(-0.407232 0.195373 0)
(-0.46608 0.202795 0)
(-0.52051 0.203161 0)
(-0.569545 0.196695 0)
(-0.612681 0.183979 0)
(-0.649722 0.165753 0)
(-0.680665 0.142797 0)
(-0.705641 0.115871 0)
(-0.724855 0.0856827 0)
(-0.738516 0.0528661 0)
(-0.746811 0.0180236 0)
(-0.749869 -0.0182307 0)
(-0.747695 -0.0552781 0)
(-0.740068 -0.0924364 0)
(-0.726546 -0.12883 0)
(-0.706538 -0.163325 0)
(-0.679284 -0.194529 0)
(-0.643965 -0.220797 0)
(-0.599928 -0.240269 0)
(-0.546947 -0.251037 0)
(-0.48548 -0.251491 0)
(-0.416926 -0.240722 0)
(-0.343814 -0.218895 0)
(-0.269726 -0.187513 0)
(-0.198856 -0.149426 0)
(-0.135252 -0.108408 0)
(-0.0819139 -0.0683394 0)
(-0.040134 -0.0323392 0)
(-0.00953741 -0.0022704 0)
(0.0110431 0.0211344 0)
(0.0227984 0.0375943 0)
(0.027157 0.047325 0)
(0.0257823 0.0511083 0)
(0.0204648 0.0499383 0)
(0.0130779 0.0443198 0)
(0.00574925 0.0334778 0)
(0.000591018 0.0148944 0)
(0.000839836 -0.0158644 0)
(0.00148343 -0.0247691 0)
(-0.00259689 -0.0166925 0)
(-0.0126884 0.00145294 0)
(-0.0295755 0.0244085 0)
(-0.0539327 0.0495772 0)
(-0.0866598 0.0766504 0)
(-0.128516 0.106092 0)
(-0.179375 0.137653 0)
(-0.237809 0.169788 0)
(-0.301291 0.200017 0)
(-0.366788 0.225705 0)
(-0.431386 0.244738 0)
(-0.492722 0.255854 0)
(-0.549138 0.25866 0)
(-0.599638 0.253438 0)
(-0.643746 0.240894 0)
(-0.681364 0.221938 0)
(-0.712669 0.197539 0)
(-0.738049 0.168647 0)
(-0.75804 0.136141 0)
(-0.773226 0.100762 0)
(-0.784169 0.0631298 0)
(-0.791367 0.0237883 0)
(-0.79516 -0.0168078 0)
(-0.79567 -0.0582827 0)
(-0.792793 -0.100209 0)
(-0.786112 -0.141961 0)
(-0.774892 -0.182687 0)
(-0.758023 -0.221233 0)
(-0.734133 -0.256012 0)
(-0.701743 -0.284965 0)
(-0.659455 -0.305716 0)
(-0.60628 -0.315845 0)
(-0.542131 -0.313256 0)
(-0.46829 -0.296713 0)
(-0.387668 -0.266458 0)
(-0.30475 -0.224645 0)
(-0.225062 -0.175297 0)
(-0.15408 -0.123645 0)
(-0.0958072 -0.0748781 0)
(-0.0517026 -0.0327911 0)
(-0.0207518 0.000861251 0)
(-0.000747074 0.0259425 0)
(0.0103072 0.0427848 0)
(0.0143134 0.0520102 0)
(0.0132074 0.0544155 0)
(0.0090131 0.0503536 0)
(0.00400077 0.0389272 0)
(0.000362242 0.0174925 0)
(0.000465004 -0.016097 0)
(-0.00257388 -0.0209723 0)
(-0.0122859 -0.00661566 0)
(-0.0292354 0.0186615 0)
(-0.0539527 0.0492755 0)
(-0.0871893 0.082882 0)
(-0.12967 0.119128 0)
(-0.181401 0.157668 0)
(-0.24106 0.196949 0)
(-0.306059 0.23426 0)
(-0.373162 0.266553 0)
(-0.4392 0.291289 0)
(-0.501569 0.306906 0)
(-0.558426 0.312867 0)
(-0.608656 0.309463 0)
(-0.651753 0.297526 0)
(-0.687692 0.278186 0)
(-0.716831 0.252683 0)
(-0.73982 0.222248 0)
(-0.757508 0.188016 0)
(-0.770821 0.150938 0)
(-0.780648 0.111742 0)
(-0.787797 0.0709791 0)
(-0.792925 0.0290317 0)
(-0.796468 -0.0138838 0)
(-0.798673 -0.0576202 0)
(-0.799607 -0.102008 0)
(-0.798984 -0.146789 0)
(-0.796147 -0.191543 0)
(-0.790034 -0.235505 0)
(-0.77917 -0.277396 0)
(-0.76163 -0.315368 0)
(-0.73512 -0.347007 0)
(-0.697324 -0.369376 0)
(-0.64642 -0.379284 0)
(-0.581679 -0.37388 0)
(-0.504101 -0.351468 0)
(-0.416954 -0.312308 0)
(-0.325821 -0.259223 0)
(-0.237865 -0.19763 0)
(-0.160279 -0.134613 0)
(-0.098241 -0.0770154 0)
(-0.0533159 -0.0293845 0)
(-0.0235801 0.00686234 0)
(-0.00556113 0.0324433 0)
(0.00361424 0.0482894 0)
(0.00645826 0.0552452 0)
(0.00528942 0.053586 0)
(0.00248761 0.0423757 0)
(0.000209253 0.0191568 0)
(-0.000171954 -0.0137867 0)
(-0.00796586 -0.0118298 0)
(-0.0241221 0.0102033 0)
(-0.0484386 0.0435069 0)
(-0.0812334 0.0826424 0)
(-0.123143 0.125392 0)
(-0.174304 0.170826 0)
(-0.233646 0.217347 0)
(-0.298702 0.262105 0)
(-0.366138 0.301647 0)
(-0.432532 0.332912 0)
(-0.494978 0.353886 0)
(-0.551362 0.363765 0)
(-0.600383 0.362773 0)
(-0.641459 0.351852 0)
(-0.674623 0.332379 0)
(-0.700403 0.305928 0)
(-0.719704 0.274085 0)
(-0.733657 0.238308 0)
(-0.743461 0.199815 0)
(-0.750244 0.159519 0)
(-0.754996 0.118049 0)
(-0.758529 0.0757919 0)
(-0.761437 0.032912 0)
(-0.764148 -0.0105709 0)
(-0.766987 -0.0546738 0)
(-0.770097 -0.0994676 0)
(-0.773375 -0.145033 0)
(-0.776481 -0.191318 0)
(-0.778756 -0.237986 0)
(-0.779052 -0.284312 0)
(-0.775557 -0.329052 0)
(-0.76579 -0.370208 0)
(-0.746752 -0.404874 0)
(-0.71522 -0.429349 0)
(-0.668323 -0.43955 0)
(-0.604463 -0.431704 0)
(-0.524329 -0.403382 0)
(-0.431621 -0.354722 0)
(-0.333158 -0.289382 0)
(-0.237977 -0.21458 0)
(-0.155222 -0.139725 0)
(-0.0912498 -0.0736333 0)
(-0.0474036 -0.0215419 0)
(-0.0204302 0.0157986 0)
(-0.0054728 0.0401098 0)
(0.00120454 0.0527758 0)
(0.00267387 0.0543851 0)
(0.00160597 0.0442007 0)
(0.000183939 0.0201678 0)
(-0.00107267 -0.00816566 0)
(-0.0144164 0.00340725 0)
(-0.0373681 0.0341437 0)
(-0.0690437 0.0760463 0)
(-0.109499 0.124134 0)
(-0.158988 0.175946 0)
(-0.216768 0.229511 0)
(-0.28068 0.28187 0)
(-0.34745 0.329209 0)
(-0.413467 0.367862 0)
(-0.475502 0.395196 0)
(-0.53111 0.409965 0)
(-0.578745 0.412203 0)
(-0.617708 0.40291 0)
(-0.648055 0.383709 0)
(-0.670473 0.356545 0)
(-0.686107 0.323419 0)
(-0.696353 0.286166 0)
(-0.702648 0.246312 0)
(-0.706292 0.204981 0)
(-0.708357 0.162912 0)
(-0.709676 0.120527 0)
(-0.710837 0.0779946 0)
(-0.712227 0.0352937 0)
(-0.71416 -0.00767003 0)
(-0.716906 -0.051032 0)
(-0.720589 -0.0950022 0)
(-0.725299 -0.139805 0)
(-0.731069 -0.185592 0)
(-0.737736 -0.232415 0)
(-0.744738 -0.280154 0)
(-0.750933 -0.328297 0)
(-0.754439 -0.375616 0)
(-0.752448 -0.419913 0)
(-0.741209 -0.457852 0)
(-0.716434 -0.484937 0)
(-0.674137 -0.495892 0)
(-0.611806 -0.485653 0)
(-0.52972 -0.450886 0)
(-0.43206 -0.391673 0)
(-0.327155 -0.312804 0)
(-0.226232 -0.223857 0)
(-0.140482 -0.13719 0)
(-0.0771193 -0.0638287 0)
(-0.0365932 -0.00931633 0)
(-0.0137825 0.0267996 0)
(-0.00262716 0.0471452 0)
(0.0013032 0.0532482 0)
(0.00144688 0.045018 0)
(0.000288215 0.0209455 0)
(-0.00217982 0.00131337 0)
(-0.0214272 0.0250269 0)
(-0.0510223 0.0650671 0)
(-0.0895011 0.115748 0)
(-0.13655 0.172616 0)
(-0.191811 0.232561 0)
(-0.253588 0.292332 0)
(-0.318874 0.347803 0)
(-0.383999 0.394669 0)
(-0.445447 0.429512 0)
(-0.50041 0.450423 0)
(-0.547033 0.457059 0)
(-0.584433 0.450359 0)
(-0.612638 0.432148 0)
(-0.632446 0.404755 0)
(-0.64522 0.37064 0)
(-0.652609 0.332082 0)
(-0.656275 0.290954 0)
(-0.657668 0.248617 0)
(-0.657914 0.205925 0)
(-0.657799 0.163322 0)
(-0.657823 0.120967 0)
(-0.658253 0.0788225 0)
(-0.659229 0.0367612 0)
(-0.660873 -0.00537106 0)
(-0.663325 -0.0477543 0)
(-0.666669 -0.0905838 0)
(-0.671101 -0.134049 0)
(-0.676859 -0.178361 0)
(-0.684134 -0.223787 0)
(-0.692968 -0.270588 0)
(-0.703106 -0.318847 0)
(-0.713691 -0.368249 0)
(-0.722872 -0.417761 0)
(-0.727527 -0.465163 0)
(-0.723254 -0.506595 0)
(-0.704741 -0.536493 0)
(-0.666725 -0.548136 0)
(-0.6056 -0.534936 0)
(-0.521316 -0.492469 0)
(-0.418845 -0.42088 0)
(-0.308412 -0.326727 0)
(-0.203738 -0.222897 0)
(-0.117979 -0.125409 0)
(-0.0584581 -0.0473843 0)
(-0.0236458 0.00623648 0)
(-0.00619027 0.0377562 0)
(0.000679037 0.0503875 0)
(0.00180986 0.0453536 0)
(0.000485809 0.021873 0)
(-0.0033581 0.0148838 0)
(-0.0283512 0.0528275 0)
(-0.0639651 0.102348 0)
(-0.108202 0.161527 0)
(-0.160269 0.226367 0)
(-0.219093 0.292811 0)
(-0.282152 0.356347 0)
(-0.34593 0.412052 0)
(-0.406725 0.455591 0)
(-0.461369 0.484143 0)
(-0.507636 0.496725 0)
(-0.544371 0.494005 0)
(-0.571476 0.477899 0)
(-0.589782 0.451083 0)
(-0.60081 0.416511 0)
(-0.606437 0.376972 0)
(-0.608544 0.334763 0)
(-0.608737 0.291523 0)
(-0.608199 0.248244 0)
(-0.607677 0.205389 0)
(-0.607562 0.163072 0)
(-0.607993 0.121208 0)
(-0.608966 0.0796304 0)
(-0.61042 0.0381667 0)
(-0.612312 -0.00334412 0)
(-0.614678 -0.0450397 0)
(-0.617574 -0.0870218 0)
(-0.621159 -0.129386 0)
(-0.625674 -0.172291 0)
(-0.631445 -0.215987 0)
(-0.638872 -0.260807 0)
(-0.648325 -0.307147 0)
(-0.659894 -0.355392 0)
(-0.673025 -0.405619 0)
(-0.686082 -0.457056 0)
(-0.695842 -0.507408 0)
(-0.697238 -0.552261 0)
(-0.683757 -0.584832 0)
(-0.648771 -0.59655 0)
(-0.587651 -0.57888 0)
(-0.500224 -0.526276 0)
(-0.392692 -0.439514 0)
(-0.277798 -0.328022 0)
(-0.172114 -0.20927 0)
(-0.0902952 -0.103571 0)
(-0.038323 -0.0252774 0)
(-0.0113382 0.0229039 0)
(-0.000155155 0.0453633 0)
(0.00229689 0.0453519 0)
(0.000720615 0.0231554 0)
(-0.00444356 0.0323932 0)
(-0.0345361 0.0861445 0)
(-0.0751395 0.144931 0)
(-0.12372 0.211878 0)
(-0.178941 0.283352 0)
(-0.239051 0.354221 0)
(-0.300943 0.418928 0)
(-0.360925 0.472166 0)
(-0.415533 0.509964 0)
(-0.462131 0.530358 0)
(-0.499188 0.533441 0)
(-0.526353 0.520993 0)
(-0.544361 0.49593 0)
(-0.554794 0.461692 0)
(-0.559701 0.421647 0)
(-0.561169 0.378614 0)
(-0.560972 0.334605 0)
(-0.560376 0.2908 0)
(-0.560119 0.24771 0)
(-0.56051 0.205398 0)
(-0.561578 0.163703 0)
(-0.56321 0.122393 0)
(-0.565249 0.0812557 0)
(-0.567542 0.0401257 0)
(-0.56998 -0.00111543 0)
(-0.572564 -0.0425308 0)
(-0.575321 -0.0841436 0)
(-0.57831 -0.125971 0)
(-0.581684 -0.168065 0)
(-0.585708 -0.210532 0)
(-0.590795 -0.253584 0)
(-0.597487 -0.297622 0)
(-0.606384 -0.343261 0)
(-0.617963 -0.391204 0)
(-0.632142 -0.441918 0)
(-0.647577 -0.494998 0)
(-0.660916 -0.548188 0)
(-0.666403 -0.59634 0)
(-0.656299 -0.630984 0)
(-0.622505 -0.641216 0)
(-0.559424 -0.616298 0)
(-0.467259 -0.549789 0)
(-0.354319 -0.444122 0)
(-0.236677 -0.313372 0)
(-0.133894 -0.181262 0)
(-0.0609079 -0.0724274 0)
(-0.0200576 -0.000205115 0)
(-0.00226925 0.0369393 0)
(0.00246953 0.0446273 0)
(0.000939994 0.0247532 0)
(-0.0052879 0.0532798 0)
(-0.039421 0.123919 0)
(-0.0836877 0.191441 0)
(-0.134987 0.265066 0)
(-0.191445 0.341492 0)
(-0.250761 0.414563 0)
(-0.30952 0.477988 0)
(-0.364124 0.52647 0)
(-0.411545 0.556708 0)
(-0.449792 0.567798 0)
(-0.478116 0.561029 0)
(-0.496994 0.539329 0)
(-0.507921 0.506537 0)
(-0.513025 0.466636 0)
(-0.514566 0.423088 0)
(-0.514502 0.378413 0)
(-0.514221 0.334094 0)
(-0.514494 0.290745 0)
(-0.51559 0.248405 0)
(-0.51746 0.206834 0)
(-0.519911 0.165719 0)
(-0.522726 0.124792 0)
(-0.525724 0.0838628 0)
(-0.528763 0.0428151 0)
(-0.531756 0.00158873 0)
(-0.534707 -0.0398274 0)
(-0.537638 -0.0814188 0)
(-0.540534 -0.123161 0)
(-0.543452 -0.165022 0)
(-0.546512 -0.206983 0)
(-0.549938 -0.249098 0)
(-0.554115 -0.291572 0)
(-0.559665 -0.334849 0)
(-0.567434 -0.379693 0)
(-0.578276 -0.427163 0)
(-0.592545 -0.478255 0)
(-0.60924 -0.532987 0)
(-0.624937 -0.589 0)
(-0.633065 -0.640101 0)
(-0.624384 -0.675624 0)
(-0.589284 -0.681702 0)
(-0.521622 -0.645137 0)
(-0.422882 -0.559361 0)
(-0.304673 -0.430469 0)
(-0.187296 -0.279817 0)
(-0.0928409 -0.138951 0)
(-0.0339628 -0.0351886 0)
(-0.00650374 0.0231697 0)
(0.00201215 0.0423101 0)
(0.00111646 0.0264163 0)
(-0.00576979 0.0766379 0)
(-0.0425935 0.164819 0)
(-0.0890361 0.240334 0)
(-0.141389 0.31932 0)
(-0.197301 0.398889 0)
(-0.254109 0.47204 0)
(-0.308336 0.532082 0)
(-0.356685 0.574065 0)
(-0.396685 0.595601 0)
(-0.427061 0.59699 0)
(-0.447851 0.580779 0)
(-0.460283 0.550983 0)
(-0.466414 0.512161 0)
(-0.468611 0.468519 0)
(-0.469021 0.423266 0)
(-0.469202 0.378358 0)
(-0.47002 0.334632 0)
(-0.471757 0.292159 0)
(-0.474321 0.250632 0)
(-0.477464 0.209652 0)
(-0.480925 0.168883 0)
(-0.484505 0.128104 0)
(-0.488082 0.0871894 0)
(-0.491579 0.0460823 0)
(-0.494959 0.00476597 0)
(-0.498256 -0.0367505 0)
(-0.501495 -0.0784445 0)
(-0.504644 -0.120287 0)
(-0.507698 -0.162223 0)
(-0.510655 -0.204186 0)
(-0.513546 -0.24612 0)
(-0.516513 -0.288019 0)
(-0.519898 -0.330029 0)
(-0.524351 -0.372614 0)
(-0.530875 -0.41673 0)
(-0.540689 -0.463831 0)
(-0.554648 -0.515454 0)
(-0.572073 -0.572056 0)
(-0.589267 -0.631035 0)
(-0.598549 -0.684579 0)
(-0.588977 -0.718889 0)
(-0.549524 -0.716411 0)
(-0.474229 -0.661721 0)
(-0.367315 -0.549905 0)
(-0.245319 -0.394011 0)
(-0.133341 -0.226069 0)
(-0.0540402 -0.0858313 0)
(-0.0133504 0.00163693 0)
(0.000772948 0.0372197 0)
(0.00125385 0.0277858 0)
(-0.00581373 0.101334 0)
(-0.0438213 0.207363 0)
(-0.0909211 0.290032 0)
(-0.142757 0.372989 0)
(-0.196602 0.453961 0)
(-0.249621 0.525352 0)
(-0.298478 0.580391 0)
(-0.340311 0.614742 0)
(-0.373267 0.627108 0)
(-0.396789 0.619078 0)
(-0.411629 0.594425 0)
(-0.419582 0.558087 0)
(-0.422996 0.515044 0)
(-0.42417 0.469378 0)
(-0.424881 0.423756 0)
(-0.426166 0.379434 0)
(-0.428386 0.336627 0)
(-0.431457 0.294996 0)
(-0.435097 0.254049 0)
(-0.439009 0.213371 0)
(-0.442977 0.172693 0)
(-0.446886 0.131879 0)
(-0.450691 0.0908754 0)
(-0.454384 0.0496702 0)
(-0.457969 0.00826619 0)
(-0.461506 -0.0333271 0)
(-0.465035 -0.0750952 0)
(-0.46853 -0.117028 0)
(-0.471965 -0.159092 0)
(-0.475287 -0.201229 0)
(-0.478434 -0.24335 0)
(-0.481361 -0.285345 0)
(-0.48411 -0.327141 0)
(-0.486932 -0.368832 0)
(-0.490472 -0.410896 0)
(-0.495907 -0.454466 0)
(-0.50482 -0.501453 0)
(-0.518511 -0.554061 0)
(-0.536504 -0.61314 0)
(-0.554558 -0.675346 0)
(-0.563421 -0.730247 0)
(-0.550109 -0.75972 0)
(-0.50258 -0.741913 0)
(-0.416523 -0.660272 0)
(-0.301054 -0.515021 0)
(-0.179316 -0.331209 0)
(-0.0805149 -0.154851 0)
(-0.0231573 -0.0304588 0)
(-0.00128156 0.0280243 0)
(0.00137161 0.0284846 0)
(-0.00539648 0.126125 0)
(-0.0430484 0.250044 0)
(-0.089362 0.339045 0)
(-0.1393 0.42465 0)
(-0.189879 0.505501 0)
(-0.238261 0.57369 0)
(-0.281395 0.622637 0)
(-0.316926 0.648826 0)
(-0.343625 0.652156 0)
(-0.361584 0.635508 0)
(-0.372115 0.603766 0)
(-0.377345 0.562537 0)
(-0.379633 0.516893 0)
(-0.380974 0.470488 0)
(-0.382652 0.425285 0)
(-0.3852 0.381842 0)
(-0.3886 0.339876 0)
(-0.392568 0.298814 0)
(-0.396782 0.258131 0)
(-0.401005 0.21749 0)
(-0.40511 0.176724 0)
(-0.40907 0.135783 0)
(-0.412909 0.0946667 0)
(-0.416656 0.053384 0)
(-0.420336 0.0119396 0)
(-0.424021 -0.0296667 0)
(-0.427761 -0.071434 0)
(-0.431543 -0.113377 0)
(-0.435341 -0.155492 0)
(-0.439112 -0.197752 0)
(-0.442778 -0.240096 0)
(-0.446223 -0.282414 0)
(-0.449321 -0.324553 0)
(-0.452013 -0.366369 0)
(-0.454473 -0.407881 0)
(-0.457343 -0.449585 0)
(-0.46196 -0.492875 0)
(-0.470291 -0.540253 0)
(-0.484073 -0.59466 0)
(-0.502796 -0.657118 0)
(-0.521076 -0.722685 0)
(-0.527401 -0.776729 0)
(-0.506637 -0.795226 0)
(-0.446824 -0.752037 0)
(-0.347686 -0.632512 0)
(-0.225963 -0.448159 0)
(-0.112334 -0.242554 0)
(-0.0364013 -0.0761149 0)
(-0.00422515 0.0132227 0)
(0.00146116 0.0281031 0)
(-0.00454272 0.149772 0)
(-0.0403674 0.291424 0)
(-0.0846011 0.386052 0)
(-0.131502 0.473159 0)
(-0.177943 0.552675 0)
(-0.221218 0.616666 0)
(-0.258654 0.658962 0)
(-0.288416 0.676992 0)
(-0.309849 0.671889 0)
(-0.323571 0.647755 0)
(-0.331251 0.610387 0)
(-0.335111 0.565773 0)
(-0.337296 0.518779 0)
(-0.339371 0.472437 0)
(-0.342131 0.427969 0)
(-0.345712 0.38534 0)
(-0.349879 0.343945 0)
(-0.354297 0.303133 0)
(-0.358701 0.262453 0)
(-0.362949 0.221679 0)
(-0.36701 0.180747 0)
(-0.370917 0.139665 0)
(-0.374731 0.0984583 0)
(-0.378497 0.0571401 0)
(-0.382238 0.0157049 0)
(-0.386022 -0.0258604 0)
(-0.389909 -0.0675669 0)
(-0.39389 -0.109448 0)
(-0.397949 -0.151521 0)
(-0.402064 -0.193794 0)
(-0.40618 -0.236248 0)
(-0.410195 -0.278823 0)
(-0.413953 -0.321391 0)
(-0.417264 -0.363748 0)
(-0.419983 -0.405668 0)
(-0.422201 -0.447106 0)
(-0.424584 -0.488626 0)
(-0.428706 -0.531999 0)
(-0.436974 -0.580522 0)
(-0.451448 -0.637971 0)
(-0.471098 -0.704997 0)
(-0.488526 -0.773404 0)
(-0.489214 -0.821975 0)
(-0.456269 -0.819367 0)
(-0.380077 -0.736961 0)
(-0.267958 -0.568424 0)
(-0.14693 -0.345989 0)
(-0.0533987 -0.137546 0)
(-0.00822351 -0.0088182 0)
(0.00147451 0.0261852 0)
(-0.00331509 0.171131 0)
(-0.0359804 0.330208 0)
(-0.077031 0.429944 0)
(-0.120007 0.517655 0)
(-0.161736 0.594979 0)
(-0.199735 0.654223 0)
(-0.231752 0.68978 0)
(-0.256447 0.700086 0)
(-0.273638 0.68747 0)
(-0.28431 0.657117 0)
(-0.290287 0.615504 0)
(-0.29368 0.568725 0)
(-0.296286 0.521224 0)
(-0.29922 0.47533 0)
(-0.30287 0.431593 0)
(-0.307126 0.389543 0)
(-0.311672 0.348418 0)
(-0.316216 0.307605 0)
(-0.32059 0.266766 0)
(-0.324745 0.225793 0)
(-0.328713 0.18469 0)
(-0.332563 0.143498 0)
(-0.336365 0.102243 0)
(-0.340163 0.0609312 0)
(-0.343969 0.0195422 0)
(-0.347841 -0.021949 0)
(-0.351843 -0.0635613 0)
(-0.355969 -0.10534 0)
(-0.360206 -0.147316 0)
(-0.364547 -0.189516 0)
(-0.368964 -0.231959 0)
(-0.373396 -0.274637 0)
(-0.377727 -0.317487 0)
(-0.381769 -0.36036 0)
(-0.385271 -0.402994 0)
(-0.388009 -0.445075 0)
(-0.390031 -0.486502 0)
(-0.392096 -0.528004 0)
(-0.39611 -0.571985 0)
(-0.404985 -0.622855 0)
(-0.420883 -0.685131 0)
(-0.44141 -0.757809 0)
(-0.455888 -0.826632 0)
(-0.446291 -0.860787 0)
(-0.395666 -0.821445 0)
(-0.300749 -0.683156 0)
(-0.180757 -0.459483 0)
(-0.0736013 -0.215106 0)
(-0.0135231 -0.0398839 0)
(0.00139006 0.0222502 0)
(-0.00180251 0.189224 0)
(-0.0301586 0.365279 0)
(-0.0671252 0.469836 0)
(-0.105527 0.557543 0)
(-0.142215 0.632173 0)
(-0.174983 0.686528 0)
(-0.202004 0.715651 0)
(-0.22237 0.718979 0)
(-0.236255 0.699941 0)
(-0.244836 0.664621 0)
(-0.249914 0.619943 0)
(-0.253347 0.571889 0)
(-0.25654 0.52436 0)
(-0.260205 0.479006 0)
(-0.264451 0.435833 0)
(-0.269045 0.394097 0)
(-0.273688 0.353002 0)
(-0.278174 0.312032 0)
(-0.282426 0.270973 0)
(-0.286464 0.229802 0)
(-0.290353 0.188565 0)
(-0.294172 0.147307 0)
(-0.297987 0.106047 0)
(-0.301835 0.0647742 0)
(-0.305717 0.0234572 0)
(-0.309675 -0.01794 0)
(-0.313782 -0.0594404 0)
(-0.318037 -0.101099 0)
(-0.322416 -0.142952 0)
(-0.326921 -0.185039 0)
(-0.33154 -0.227397 0)
(-0.336243 -0.270054 0)
(-0.340964 -0.31301 0)
(-0.345572 -0.356198 0)
(-0.349847 -0.399437 0)
(-0.353484 -0.442386 0)
(-0.356194 -0.48463 0)
(-0.358027 -0.526066 0)
(-0.359945 -0.567794 0)
(-0.36437 -0.613263 0)
(-0.374751 -0.668351 0)
(-0.392774 -0.737732 0)
(-0.413247 -0.816083 0)
(-0.420803 -0.878719 0)
(-0.39457 -0.882515 0)
(-0.321445 -0.784849 0)
(-0.210249 -0.575976 0)
(-0.0954109 -0.306755 0)
(-0.0203484 -0.0816507 0)
(0.00125013 0.0158142 0)
(-0.00010916 0.203272 0)
(-0.0232087 0.395713 0)
(-0.0553815 0.505054 0)
(-0.0887603 0.592443 0)
(-0.120265 0.664212 0)
(-0.147981 0.713878 0)
(-0.17048 0.737173 0)
(-0.187207 0.734467 0)
(-0.198559 0.710145 0)
(-0.205755 0.670998 0)
(-0.210432 0.624188 0)
(-0.214121 0.575443 0)
(-0.217849 0.528099 0)
(-0.222018 0.48321 0)
(-0.22657 0.440387 0)
(-0.231249 0.398742 0)
(-0.235819 0.357524 0)
(-0.240161 0.316331 0)
(-0.244269 0.275052 0)
(-0.248201 0.23372 0)
(-0.252034 0.192396 0)
(-0.25584 0.151116 0)
(-0.259679 0.109885 0)
(-0.263582 0.0686793 0)
(-0.26754 0.0274552 0)
(-0.271581 -0.0138314 0)
(-0.275791 -0.0552053 0)
(-0.280175 -0.096731 0)
(-0.284694 -0.138449 0)
(-0.289352 -0.180405 0)
(-0.294143 -0.222645 0)
(-0.29905 -0.265216 0)
(-0.30404 -0.308155 0)
(-0.309038 -0.351467 0)
(-0.313897 -0.395072 0)
(-0.31836 -0.438731 0)
(-0.322061 -0.481997 0)
(-0.324669 -0.524353 0)
(-0.326324 -0.565813 0)
(-0.328387 -0.608234 0)
(-0.334 -0.656755 0)
(-0.346975 -0.718914 0)
(-0.367309 -0.797639 0)
(-0.384932 -0.878258 0)
(-0.37905 -0.920166 0)
(-0.329112 -0.868393 0)
(-0.232651 -0.688452 0)
(-0.116671 -0.408502 0)
(-0.0286997 -0.135267 0)
(0.00111708 0.00636591 0)
(0.00165527 0.212718 0)
(-0.0154469 0.420778 0)
(-0.0422823 0.535108 0)
(-0.0703521 0.622149 0)
(-0.0966585 0.691173 0)
(-0.119562 0.736623 0)
(-0.137997 0.754907 0)
(-0.15167 0.747211 0)
(-0.161082 0.718712 0)
(-0.167365 0.676714 0)
(-0.171901 0.628467 0)
(-0.175876 0.579377 0)
(-0.179986 0.532256 0)
(-0.184422 0.487689 0)
(-0.189049 0.44502 0)
(-0.193644 0.403313 0)
(-0.198048 0.361896 0)
(-0.202213 0.320474 0)
(-0.206178 0.279009 0)
(-0.210016 0.237564 0)
(-0.213802 0.196198 0)
(-0.217596 0.154932 0)
(-0.221451 0.113758 0)
(-0.225399 0.0726417 0)
(-0.229424 0.0315319 0)
(-0.233537 -0.00962471 0)
(-0.237846 -0.0508526 0)
(-0.242366 -0.092229 0)
(-0.247037 -0.133798 0)
(-0.251863 -0.17561 0)
(-0.256835 -0.217715 0)
(-0.261944 -0.260168 0)
(-0.267169 -0.303027 0)
(-0.272469 -0.346339 0)
(-0.277756 -0.390105 0)
(-0.282857 -0.43421 0)
(-0.287463 -0.478322 0)
(-0.29115 -0.521849 0)
(-0.29359 -0.564203 0)
(-0.295162 -0.605799 0)
(-0.297904 -0.649961 0)
(-0.305857 -0.70433 0)
(-0.322477 -0.777391 0)
(-0.343797 -0.86564 0)
(-0.352661 -0.937128 0)
(-0.324556 -0.931397 0)
(-0.246448 -0.791047 0)
(-0.13533 -0.515299 0)
(-0.0381869 -0.200506 0)
(0.000968598 -0.00656407 0)
(0.00338484 0.217251 0)
(-0.00718245 0.439888 0)
(-0.0282761 0.559653 0)
(-0.0508652 0.646571 0)
(-0.0720337 0.713201 0)
(-0.0903768 0.755108 0)
(-0.105143 0.769329 0)
(-0.116221 0.757722 0)
(-0.124108 0.726071 0)
(-0.129761 0.682033 0)
(-0.134256 0.632841 0)
(-0.138443 0.583582 0)
(-0.142758 0.536632 0)
(-0.147256 0.492232 0)
(-0.151791 0.449568 0)
(-0.156197 0.407713 0)
(-0.160385 0.366079 0)
(-0.16436 0.324455 0)
(-0.168182 0.282849 0)
(-0.171925 0.241336 0)
(-0.175654 0.199966 0)
(-0.179422 0.158744 0)
(-0.183275 0.11765 0)
(-0.187249 0.0766458 0)
(-0.191328 0.0356747 0)
(-0.195498 -0.00532504 0)
(-0.199896 -0.0463809 0)
(-0.204557 -0.0875826 0)
(-0.209393 -0.128982 0)
(-0.214408 -0.17063 0)
(-0.21959 -0.212584 0)
(-0.224928 -0.254899 0)
(-0.230405 -0.297643 0)
(-0.235997 -0.340886 0)
(-0.241651 -0.384681 0)
(-0.247257 -0.429012 0)
(-0.252598 -0.473689 0)
(-0.257305 -0.51823 0)
(-0.260903 -0.561867 0)
(-0.263158 -0.604093 0)
(-0.264947 -0.646325 0)
(-0.26936 -0.694503 0)
(-0.281182 -0.759306 0)
(-0.301602 -0.846827 0)
(-0.319359 -0.937798 0)
(-0.309808 -0.973938 0)
(-0.251388 -0.879641 0)
(-0.149906 -0.622014 0)
(-0.0480793 -0.275606 0)
(0.000664393 -0.0234204 0)
(0.00493806 0.216682 0)
(0.00127968 0.452701 0)
(-0.0137623 0.578432 0)
(-0.0307804 0.665697 0)
(-0.0469044 0.730462 0)
(-0.0609131 0.769632 0)
(-0.072321 0.780809 0)
(-0.0811274 0.766358 0)
(-0.0877553 0.732488 0)
(-0.0929211 0.687072 0)
(-0.0973759 0.637279 0)
(-0.101664 0.587919 0)
(-0.106017 0.541048 0)
(-0.11042 0.496679 0)
(-0.114748 0.453922 0)
(-0.118898 0.411884 0)
(-0.122841 0.370049 0)
(-0.126612 0.328264 0)
(-0.130279 0.286565 0)
(-0.133911 0.245025 0)
(-0.137565 0.203682 0)
(-0.141283 0.16253 0)
(-0.145111 0.12154 0)
(-0.149089 0.0806707 0)
(-0.153206 0.0398687 0)
(-0.157415 -0.000936851 0)
(-0.161888 -0.0417907 0)
(-0.166691 -0.0827823 0)
(-0.171705 -0.123981 0)
(-0.176928 -0.16544 0)
(-0.182348 -0.207217 0)
(-0.18795 -0.249372 0)
(-0.193719 -0.291973 0)
(-0.199636 -0.335104 0)
(-0.205666 -0.37885 0)
(-0.211735 -0.423258 0)
(-0.217699 -0.468259 0)
(-0.223281 -0.513528 0)
(-0.22804 -0.558367 0)
(-0.231497 -0.601863 0)
(-0.233699 -0.644007 0)
(-0.236433 -0.688404 0)
(-0.244141 -0.745112 0)
(-0.261199 -0.826498 0)
(-0.282789 -0.927134 0)
(-0.287517 -0.997946 0)
(-0.248243 -0.951988 0)
(-0.15966 -0.72415 0)
(-0.0575437 -0.357805 0)
(-5.07864e-06 -0.0446287 0)
(0.00616004 0.211242 0)
(0.00957639 0.458776 0)
(0.000934523 0.591353 0)
(-0.0104979 0.679537 0)
(-0.0216768 0.743108 0)
(-0.0315268 0.780425 0)
(-0.0397898 0.789606 0)
(-0.046527 0.773344 0)
(-0.0520357 0.738103 0)
(-0.0567597 0.691859 0)
(-0.0611241 0.641705 0)
(-0.0653982 0.592256 0)
(-0.0696577 0.545363 0)
(-0.0738495 0.500918 0)
(-0.077891 0.45801 0)
(-0.0817394 0.415786 0)
(-0.0854096 0.373783 0)
(-0.0889563 0.331885 0)
(-0.0924465 0.290138 0)
(-0.0959422 0.248607 0)