/*--------------------------------*- C++ -*----------------------------------*\
  =========                 |
  \\      /  F ield         | OpenFOAM: The Open Source CFD Toolbox
   \\    /   O peration     | Website:  https://openfoam.org
    \\  /    A nd           | Version:  7
     \\/     M anipulation  |
\*---------------------------------------------------------------------------*/
FoamFile
{
    version     2.0;
    format      ascii;
    class       volScalarField;
    location    "450";
    object      p;
}
// * * * * * * * * * * * * * * * * * * * * * * * * * * * * * * * * * * * * * //

dimensions      [0 2 -2 0 0 0 0];

internalField   nonuniform List<scalar> 
2500
(
1.69744e-07
7.10088e-05
-9.19074e-06
-0.000308387
-0.000783209
-0.00137121
-0.00203226
-0.00276188
-0.00358585
-0.00454488
-0.00567905
-0.00701825
-0.00857939
-0.0103622
-0.012343
-0.0144677
-0.0166438
-0.0187393
-0.0205888
-0.0220099
-0.0228271
-0.0229007
-0.0221547
-0.020605
-0.0183773
-0.0156974
-0.0128866
-0.0103627
-0.00858821
-0.00800219
-0.00893947
-0.0115397
-0.015692
-0.0211018
-0.027311
-0.033758
-0.039913
-0.0453736
-0.0499073
-0.0534379
-0.0560146
-0.0577716
-0.0588831
-0.0595251
-0.0598495
-0.0599725
-0.0599722
-0.0598913
-0.0597522
-0.059613
-6.8977e-05
3.70182e-06
-8.03821e-05
-0.000377197
-0.000829967
-0.00137453
-0.0019758
-0.0026353
-0.00338167
-0.00425527
-0.00529495
-0.00653066
-0.00798311
-0.00966003
-0.0115497
-0.0136152
-0.0157855
-0.0179486
-0.0199515
-0.0216098
-0.0227306
-0.0231434
-0.0227339
-0.0214773
-0.0194679
-0.0169226
-0.014178
-0.0116702
-0.00988043
-0.0092671
-0.0101808
-0.0127828
-0.0169914
-0.0224595
-0.0286845
-0.0351183
-0.0412063
-0.046506
-0.0507762
-0.0539883
-0.0562593
-0.0577703
-0.0587146
-0.0592649
-0.0595577
-0.0596902
-0.0597246
-0.0596903
-0.059589
-0.0594573
-1.8787e-05
4.97455e-05
-5.7479e-05
-0.000380311
-0.000833056
-0.00133996
-0.0018709
-0.00243877
-0.00308471
-0.00385628
-0.00479765
-0.00594923
-0.00734914
-0.00903188
-0.0110174
-0.0132946
-0.0158027
-0.0184198
-0.0209629
-0.023205
-0.0249061
-0.0258517
-0.0258898
-0.0249687
-0.02318
-0.0207507
-0.0180179
-0.0154153
-0.0134363
-0.0125626
-0.013178
-0.0154831
-0.0194353
-0.0247348
-0.030874
-0.0372318
-0.0432287
-0.0484214
-0.0525278
-0.0554805
-0.0574081
-0.0585557
-0.0591767
-0.059476
-0.0595985
-0.0596339
-0.059629
-0.0595937
-0.0594979
-0.0593536
0.000228876
0.000266673
0.000101854
-0.000279811
-0.000755877
-0.00123742
-0.0017036
-0.00218661
-0.00274761
-0.00345774
-0.00439054
-0.00562565
-0.00724809
-0.00933496
-0.0119291
-0.0150099
-0.0184739
-0.0221321
-0.025728
-0.0289702
-0.0315738
-0.0332988
-0.0339803
-0.033554
-0.0320914
-0.0297949
-0.0269766
-0.0240577
-0.0215333
-0.0199115
-0.0196313
-0.0209749
-0.0239936
-0.0284766
-0.033975
-0.0398862
-0.0455871
-0.0505568
-0.0544981
-0.0573199
-0.0590718
-0.0599645
-0.0602788
-0.0602748
-0.0601373
-0.0599763
-0.0598423
-0.0597365
-0.0596065
-0.0594417
0.000708813
0.000678325
0.000418715
-4.37771e-05
-0.000555175
-0.00102926
-0.00146064
-0.00190947
-0.00247661
-0.00328425
-0.0044697
-0.00618105
-0.00855765
-0.0116949
-0.0156067
-0.0202014
-0.0252819
-0.0305665
-0.0357242
-0.0404135
-0.0443199
-0.0471858
-0.0488331
-0.0491769
-0.0482467
-0.0461878
-0.0432649
-0.0398629
-0.0364541
-0.0335541
-0.0316567
-0.0311518
-0.0322435
-0.034891
-0.0387959
-0.043454
-0.0482651
-0.0526671
-0.0562581
-0.0588491
-0.060472
-0.0612824
-0.0614711
-0.061288
-0.0609524
-0.0606079
-0.0603282
-0.0601267
-0.0599505
-0.0597737
0.0014648
0.00133029
0.000950495
0.000398637
-0.000167722
-0.000674512
-0.00114665
-0.00169724
-0.00249587
-0.00374905
-0.00568269
-0.00851091
-0.012389
-0.0173673
-0.0233649
-0.0301727
-0.0374804
-0.0449162
-0.0520863
-0.0586111
-0.0641538
-0.068444
-0.0712942
-0.072606
-0.0723774
-0.0706923
-0.0677484
-0.0638658
-0.0594522
-0.0549831
-0.0509618
-0.0478607
-0.0460475
-0.0457105
-0.0468056
-0.049051
-0.0519844
-0.0550756
-0.0578562
-0.0600147
-0.0614292
-0.0621469
-0.0623315
-0.0621457
-0.0617607
-0.0613358
-0.0609705
-0.0607023
-0.0604972
-0.0603259
0.00253513
0.00227182
0.00176269
0.00111097
0.000453761
-0.000166091
-0.00083708
-0.00175528
-0.00319054
-0.00545328
-0.00884534
-0.0135954
-0.0197992
-0.0273887
-0.0361378
-0.0456972
-0.055642
-0.0655192
-0.0748871
-0.0833466
-0.0905636
-0.096283
-0.100333
-0.102624
-0.10315
-0.101962
-0.0991863
-0.095056
-0.0898733
-0.0840109
-0.0779004
-0.0720083
-0.0667933
-0.0626461
-0.0598201
-0.0583742
-0.0581508
-0.0588116
-0.0599288
-0.0610993
-0.0620338
-0.0625918
-0.0627714
-0.0626601
-0.0623619
-0.0619879
-0.061638
-0.0613696
-0.0611741
-0.0610291
0.00392596
0.00352657
0.00288728
0.00211337
0.00129758
0.000411718
-0.000729965
-0.00243709
-0.00509499
-0.00909751
-0.0147594
-0.0222353
-0.0314766
-0.0422371
-0.0541166
-0.0666211
-0.0792238
-0.0914156
-0.102743
-0.112829
-0.121389
-0.128224
-0.133212
-0.13629
-0.137477
-0.136834
-0.134432
-0.130415
-0.124967
-0.118318
-0.110755
-0.102628
-0.0943492
-0.0863755
-0.0791679
-0.0731278
-0.0685202
-0.0654096
-0.0636391
-0.0628764
-0.0627167
-0.0627986
-0.0628766
-0.0628435
-0.0626953
-0.0624733
-0.0622403
-0.0620499
-0.0619101
-0.0618096
0.0055821
0.00505361
0.00427919
0.00334046
0.00224125
0.000842785
-0.00116761
-0.00422614
-0.00880987
-0.015326
-0.0240025
-0.0348225
-0.0475227
-0.0616438
-0.0766078
-0.091798
-0.106628
-0.120586
-0.133268
-0.144374
-0.153712
-0.161171
-0.166695
-0.170265
-0.171927
-0.171777
-0.169859
-0.166252
-0.161041
-0.154326
-0.146231
-0.136929
-0.126664
-0.115782
-0.104747
-0.0941313
-0.0845529
-0.0765716
-0.0705493
-0.0665375
-0.0642588
-0.0632155
-0.0628739
-0.0628191
-0.0628203
-0.0628015
-0.0627575
-0.0627111
-0.0626665
-0.0626217
0.00735257
0.00670922
0.00578847
0.00460279
0.00302271
0.000768783
-0.00261131
-0.00765809
-0.0148699
-0.0245618
-0.0367673
-0.051218
-0.0673965
-0.0846312
-0.102202
-0.119429
-0.135742
-0.150702
-0.164012
-0.17549
-0.185054
-0.192684
-0.198388
-0.202185
-0.204137
-0.204369
-0.202917
-0.199824
-0.195121
-0.188826
-0.18095
-0.171505
-0.160539
-0.148181
-0.134706
-0.120589
-0.106538
-0.0934458
-0.0822327
-0.0736067
-0.0678188
-0.0645699
-0.0631598
-0.0627977
-0.0628729
-0.0630547
-0.0632352
-0.0633736
-0.063449
-0.0634638
0.00897892
0.0082397
0.00713698
0.00557121
0.00324453
-0.00027643
-0.00556674
-0.0132074
-0.0236138
-0.0368958
-0.0528049
-0.0707783
-0.0900499
-0.109784
-0.129196
-0.147639
-0.164638
-0.179894
-0.193246
-0.204637
-0.214079
-0.221617
-0.227302
-0.231173
-0.233294
-0.233792
-0.2327
-0.23005
-0.225858
-0.220116
-0.212784
-0.203795
-0.193061
-0.180513
-0.166167
-0.150221
-0.133165
-0.115864
-0.0995285
-0.0854932
-0.0748299
-0.0679341
-0.0643641
-0.0630942
-0.0630209
-0.0633639
-0.0637626
-0.0640985
-0.0643037
-0.0643787
0.0101074
0.00927706
0.00792518
0.00580204
0.00242238
-0.00278998
-0.0104818
-0.0211797
-0.0351037
-0.0520655
-0.0714875
-0.0925199
-0.114205
-0.135634
-0.156063
-0.174967
-0.192033
-0.207119
-0.220197
-0.231307
-0.240515
-0.247898
-0.25352
-0.257423
-0.25966
-0.260341
-0.25949
-0.257141
-0.253312
-0.248001
-0.241175
-0.232755
-0.222613
-0.210582
-0.196492
-0.180252
-0.161982
-0.142194
-0.121938
-0.102788
-0.0865405
-0.0746099
-0.0674157
-0.0641975
-0.0634802
-0.0638456
-0.0644407
-0.0649685
-0.0653056
-0.0654439
0.0103093
0.00937358
0.00768143
0.0048023
6.8236e-05
-0.00720264
-0.0176512
-0.031645
-0.0491141
-0.0695192
-0.0919576
-0.115351
-0.138648
-0.160978
-0.181735
-0.200572
-0.217353
-0.232077
-0.244811
-0.255645
-0.264666
-0.27195
-0.277554
-0.281509
-0.28385
-0.284667
-0.283972
-0.281796
-0.278167
-0.273097
-0.266574
-0.258551
-0.248928
-0.23754
-0.224159
-0.208528
-0.190454
-0.169988
-0.147678
-0.124807
-0.103388
-0.0857101
-0.0734522
-0.0668418
-0.0645651
-0.0646087
-0.0653524
-0.0660641
-0.0665414
-0.0667548
0.00914067
0.00807415
0.00594015
0.00211832
-0.0042153
-0.013791
-0.0271554
-0.044426
-0.0651838
-0.0885346
-0.113304
-0.138281
-0.162434
-0.185029
-0.205652
-0.224148
-0.240531
-0.254896
-0.267357
-0.278016
-0.28695
-0.29422
-0.299865
-0.303903
-0.30635
-0.307281
-0.306696
-0.304623
-0.301088
-0.296113
-0.289707
-0.281857
-0.272513
-0.261568
-0.248836
-0.234041
-0.216849
-0.196971
-0.174397
-0.149755
-0.124645
-0.101623
-0.0834826
-0.0719749
-0.0667934
-0.0658187
-0.0665485
-0.0674521
-0.0680939
-0.0684077
0.00622623
0.00499659
0.00232885
-0.00257661
-0.0106565
-0.0226228
-0.0388476
-0.059136
-0.0827052
-0.108348
-0.134705
-0.160546
-0.184954
-0.207391
-0.227645
-0.245724
-0.261742
-0.275841
-0.288141
-0.298728
-0.307661
-0.314976
-0.320697
-0.324831
-0.327382
-0.328412
-0.327919
-0.325922
-0.322443
-0.317502
-0.311116
-0.303292
-0.294023
-0.283264
-0.27091
-0.256764
-0.24051
-0.221734
-0.200052
-0.175416
-0.148612
-0.121712
-0.0979386
-0.0805194
-0.070903
-0.0677858
-0.0681015
-0.0691937
-0.0700358
-0.0704923
0.00132863
-9.46544e-05
-0.00335934
-0.00941912
-0.0192713
-0.0335465
-0.0523826
-0.0752477
-0.101022
-0.128258
-0.155516
-0.18164
-0.205893
-0.227946
-0.247761
-0.265459
-0.281203
-0.295139
-0.307368
-0.317952
-0.326923
-0.334303
-0.340104
-0.344326
-0.346966
-0.348082
-0.347673
-0.345748
-0.342324
-0.337415
-0.331035
-0.323197
-0.31391
-0.303172
-0.29095
-0.277149
-0.261562
-0.243828
-0.223445
-0.199927
-0.173236
-0.144468
-0.11639
-0.0930097
-0.0777185
-0.0710328
-0.070176
-0.0713543
-0.072444
-0.0730992
-0.00560335
-0.00724116
-0.0111254
-0.0183306
-0.0298621
-0.0462192
-0.0672749
-0.0921715
-0.119508
-0.147687
-0.175282
-0.201278
-0.22514
-0.246726
-0.266127
-0.283521
-0.299079
-0.312926
-0.325134
-0.335737
-0.34475
-0.352183
-0.358045
-0.362335
-0.365046
-0.366233
-0.365898
-0.364046
-0.360686
-0.355829
-0.349482
-0.341653
-0.332352
-0.321591
-0.309378
-0.295695
-0.280458
-0.263444
-0.244231
-0.222202
-0.196776
-0.168024
-0.13761
-0.109301
-0.0878706
-0.0762332
-0.0730895
-0.0740361
-0.075432
-0.0763346
-0.0144205
-0.0162796
-0.0207628
-0.0290312
-0.0420513
-0.0601607
-0.0829661
-0.109322
-0.13762
-0.1662
-0.193715
-0.219328
-0.242695
-0.263817
-0.282862
-0.300025
-0.315459
-0.329254
-0.341453
-0.352069
-0.361106
-0.36857
-0.37447
-0.378804
-0.381568
-0.382809
-0.382539
-0.380755
-0.377466
-0.372678
-0.366393
-0.358614
-0.349344
-0.338593
-0.326379
-0.312722
-0.297623
-0.281003
-0.262607
-0.241919
-0.218174
-0.190722
-0.159958
-0.128533
-0.101517
-0.0840285
-0.0773
-0.0773994
-0.0791232
-0.08031
-0.0247942
-0.0268654
-0.0318897
-0.0410833
-0.0553369
-0.0748172
-0.0988859
-0.126166
-0.154918
-0.183485
-0.210649
-0.235749
-0.258597
-0.279296
-0.298047
-0.315033
-0.330373
-0.344125
-0.356305
-0.366916
-0.375954
-0.383426
-0.389343
-0.393705
-0.396506
-0.397788
-0.397572
-0.395849
-0.392628
-0.387914
-0.381707
-0.374007
-0.364814
-0.354128
-0.341961
-0.328341
-0.313306
-0.296873
-0.278957
-0.259242
-0.237063
-0.211469
-0.181855
-0.14936
-0.118211
-0.0947939
-0.0833111
-0.0816736
-0.0836229
-0.085138
-0.0362628
-0.0385224
-0.0440029
-0.0539509
-0.069155
-0.0896195
-0.114499
-0.142248
-0.171059
-0.199333
-0.225992
-0.250531
-0.272886
-0.293214
-0.311719
-0.328558
-0.343814
-0.357515
-0.369662
-0.380248
-0.38927
-0.396734
-0.402652
-0.407029
-0.409857
-0.41117
-0.410998
-0.409327
-0.406168
-0.401523
-0.395398
-0.38779
-0.378697
-0.368117
-0.356054
-0.342526
-0.327573
-0.311255
-0.293604
-0.274508
-0.253533
-0.229785
-0.202133
-0.170325
-0.136988
-0.108472
-0.0915488
-0.0871506
-0.0890214
-0.0909375
-0.0482911
-0.0507025
-0.0565398
-0.0670611
-0.0829363
-0.104029
-0.129334
-0.157194
-0.185788
-0.2136
-0.239687
-0.263676
-0.285581
-0.305587
-0.323882
-0.340589
-0.355759
-0.369398
-0.381497
-0.392044
-0.401039
-0.408486
-0.414398
-0.418782
-0.421629
-0.422964
-0.422828
-0.421201
-0.418094
-0.413513
-0.407462
-0.399944
-0.390958
-0.380504
-0.36858
-0.355194
-0.340378
-0.324193
-0.306725
-0.288008
-0.267861
-0.245642
-0.220143
-0.19019
-0.15661
-0.12454
-0.10221
-0.0941089
-0.0954107
-0.09782
-0.0603302
-0.0628463
-0.0689367
-0.079857
-0.0961503
-0.117569
-0.142995
-0.170709
-0.198914
-0.226185
-0.251697
-0.275174
-0.296682
-0.316408
-0.334517
-0.351099
-0.36618
-0.379749
-0.39179
-0.402293
-0.411255
-0.418681
-0.424584
-0.428971
-0.431833
-0.433182
-0.433076
-0.431484
-0.42842
-0.423892
-0.417906
-0.410469
-0.401584
-0.391254
-0.379481
-0.366268
-0.351636
-0.335633
-0.318353
-0.299908
-0.280312
-0.259229
-0.235678
-0.208109
-0.175845
-0.142099
-0.115148
-0.102739
-0.102898
-0.105842
-0.0718672
-0.0744369
-0.0806754
-0.091838
-0.108334
-0.129839
-0.155162
-0.182566
-0.210295
-0.237012
-0.261985
-0.285008
-0.306171
-0.325654
-0.343595
-0.360058
-0.375047
-0.388544
-0.400527
-0.410985
-0.419916
-0.427322
-0.433215
-0.437603
-0.440476
-0.441834
-0.441751
-0.440187
-0.437157
-0.432671
-0.426738
-0.419368
-0.41057
-0.400353
-0.388723
-0.375688
-0.361262
-0.345483
-0.328431
-0.31024
-0.291043
-0.27077
-0.248793
-0.223634
-0.193675
-0.160062
-0.12985
-0.113054
-0.111539
-0.114943
-0.082485
-0.0850142
-0.0913175
-0.102584
-0.119109
-0.140518
-0.16559
-0.192594
-0.219824
-0.246018
-0.270515
-0.293147
-0.314017
-0.33329
-0.351081
-0.367432
-0.382335
-0.395764
-0.407694
-0.418114
-0.427019
-0.43441
-0.440295
-0.444683
-0.447565
-0.448928
-0.448864
-0.44732
-0.444314
-0.439858
-0.433963
-0.426643
-0.417914
-0.40779
-0.396286
-0.383414
-0.369192
-0.353652
-0.336862
-0.318948
-0.300095
-0.280417
-0.259637
-0.236616
-0.209388
-0.177349
-0.145511
-0.124811
-0.121237
-0.124885
-0.0918677
-0.0942028
-0.100504
-0.111769
-0.128185
-0.149368
-0.174096
-0.200666
-0.22742
-0.253153
-0.277246
-0.299557
-0.320184
-0.339279
-0.35694
-0.373193
-0.388021
-0.401392
-0.41328
-0.423672
-0.43256
-0.439944
-0.445826
-0.450216
-0.453106
-0.454476
-0.454422
-0.452891
-0.449899
-0.445459
-0.439586
-0.432298
-0.423614
-0.413557
-0.40215
-0.389415
-0.375376
-0.360066
-0.343546
-0.325932
-0.307415
-0.288216
-0.268338
-0.247069
-0.222559
-0.193027
-0.161165
-0.137487
-0.131652
-0.135248
-0.0997678
-0.101774
-0.107966
-0.119152
-0.135357
-0.156221
-0.180554
-0.206694
-0.233023
-0.258372
-0.282144
-0.3042
-0.324635
-0.343587
-0.36114
-0.377313
-0.392081
-0.405411
-0.417274
-0.427653
-0.436538
-0.443924
-0.449813
-0.454209
-0.457107
-0.458489
-0.458439
-0.456917
-0.453928
-0.449489
-0.443619
-0.436337
-0.427672
-0.41765
-0.406305
-0.393669
-0.379775
-0.364664
-0.348397
-0.331081
-0.312903
-0.294129
-0.274951
-0.255056
-0.232984
-0.206393
-0.175835
-0.150335
-0.142244
-0.145497
-0.10602
-0.107611
-0.11355
-0.124583
-0.140509
-0.160994
-0.184908
-0.210638
-0.236601
-0.261646
-0.285176
-0.307045
-0.327335
-0.346177
-0.363649
-0.379763
-0.394494
-0.407804
-0.419662
-0.430047
-0.438945
-0.446349
-0.452256
-0.456666
-0.459576
-0.460969
-0.460922
-0.459404
-0.456408
-0.451957
-0.44607
-0.438771
-0.430092
-0.420069
-0.408744
-0.396159
-0.38236
-0.367398
-0.35134
-0.334294
-0.31644
-0.298058
-0.279451
-0.260621
-0.240591
-0.216977
-0.188653
-0.162513
-0.152379
-0.155061
-0.110558
-0.111676
-0.117217
-0.128002
-0.14359
-0.163645
-0.187116
-0.212453
-0.238109
-0.262932
-0.286307
-0.308065
-0.328271
-0.347045
-0.364465
-0.380548
-0.395265
-0.40858
-0.420455
-0.430867
-0.439797
-0.447233
-0.453166
-0.457594
-0.460512
-0.461909
-0.461858
-0.460344
-0.457332
-0.452854
-0.446932
-0.439591
-0.430867
-0.420805
-0.409456
-0.396872
-0.38311
-0.368233
-0.35232
-0.335486
-0.317913
-0.299883
-0.281758
-0.263756
-0.245362
-0.224498
-0.198934
-0.173208
-0.16143
-0.163403
-0.113411
-0.114025
-0.119032
-0.129458
-0.144643
-0.164213
-0.187205
-0.212145
-0.237523
-0.262181
-0.285469
-0.307181
-0.327356
-0.346109
-0.363517
-0.379602
-0.394341
-0.407693
-0.419621
-0.430093
-0.439088
-0.446588
-0.45258
-0.457056
-0.460012
-0.461431
-0.461357
-0.459813
-0.456751
-0.452208
-0.446208
-0.438785
-0.42998
-0.41984
-0.40842
-0.395782
-0.381994
-0.367132
-0.351288
-0.334588
-0.317224
-0.299484
-0.281762
-0.264412
-0.247294
-0.228808
-0.206184
-0.18171
-0.168825
-0.170042
-0.114685
-0.114798
-0.11915
-0.129078
-0.143776
-0.162792
-0.185249
-0.209765
-0.234871
-0.259397
-0.282651
-0.304373
-0.324572
-0.343348
-0.360782
-0.376904
-0.391695
-0.405116
-0.417126
-0.42769
-0.436777
-0.444366
-0.450438
-0.454981
-0.457987
-0.459444
-0.459372
-0.457809
-0.454697
-0.450078
-0.443983
-0.436442
-0.4275
-0.417213
-0.405646
-0.392875
-0.378983
-0.364056
-0.348194
-0.331538
-0.314291
-0.296755
-0.279348
-0.262506
-0.246365
-0.229839
-0.210083
-0.187449
-0.174069
-0.17456
-0.114559
-0.114207
-0.117808
-0.127066
-0.141154
-0.159522
-0.18136
-0.205387
-0.230192
-0.254594
-0.277845
-0.299626
-0.319899
-0.338745
-0.356248
-0.372444
-0.387323
-0.40085
-0.412979
-0.423668
-0.432883
-0.440592
-0.446772
-0.451404
-0.454478
-0.455981
-0.455916
-0.454332
-0.451163
-0.446451
-0.440234
-0.432546
-0.423433
-0.412956
-0.401189
-0.388212
-0.374117
-0.359007
-0.343007
-0.326278
-0.30904
-0.291603
-0.274407
-0.257944
-0.242541
-0.227566
-0.210438
-0.189995
-0.176736
-0.176592
-0.113258
-0.112513
-0.115303
-0.123696
-0.137006
-0.154593
-0.175687
-0.199116
-0.223541
-0.247781
-0.271033
-0.292903
-0.313296
-0.332263
-0.349882
-0.366198
-0.381209
-0.394883
-0.407173
-0.418031
-0.427412
-0.435279
-0.441601
-0.446352
-0.449515
-0.451075
-0.451024
-0.449419
-0.446187
-0.441368
-0.435005
-0.427135
-0.417805
-0.407084
-0.395048
-0.381789
-0.367406
-0.352017
-0.335759
-0.318814
-0.30143
-0.283956
-0.266852
-0.250637
-0.235772
-0.221979
-0.207151
-0.189039
-0.176458
-0.175813
-0.111048
-0.110008
-0.111971
-0.119305
-0.13162
-0.148247
-0.168426
-0.191092
-0.214999
-0.238987
-0.2622
-0.284164
-0.304711
-0.323849
-0.34164
-0.358129
-0.373323
-0.387195
-0.399695
-0.410769
-0.420364
-0.428432
-0.434935
-0.439838
-0.443117
-0.444755
-0.444735
-0.443108
-0.439811
-0.434874
-0.428342
-0.420256
-0.410667
-0.399643
-0.38727
-0.373643
-0.358873
-0.343088
-0.326446
-0.30915
-0.291477
-0.273805
-0.256636
-0.240526
-0.226016
-0.21308
-0.200183
-0.184373
-0.17291
-0.171925
-0.108205
-0.106983
-0.108157
-0.114265
-0.125338
-0.140771
-0.159814
-0.181497
-0.204684
-0.228262
-0.251343
-0.27337
-0.294088
-0.313444
-0.331466
-0.348194
-0.363635
-0.377764
-0.390532
-0.401878
-0.41174
-0.420061
-0.42679
-0.431887
-0.435318
-0.437059
-0.437092
-0.43545
-0.432091
-0.427027
-0.420307
-0.411974
-0.40208
-0.390698
-0.377914
-0.363831
-0.348568
-0.332267
-0.315101
-0.297301
-0.279176
-0.261147
-0.243758
-0.227601
-0.213268
-0.200889
-0.189541
-0.175877
-0.165807
-0.164645
-0.104997
-0.103706
-0.104179
-0.108958
-0.118537
-0.132496
-0.150126
-0.170545
-0.192742
-0.215683
-0.238473
-0.260483
-0.281362
-0.300972
-0.319293
-0.336336
-0.352103
-0.366566
-0.379674
-0.391361
-0.401554
-0.410187
-0.417198
-0.422537
-0.42616
-0.428039
-0.428149
-0.426508
-0.423093
-0.4179
-0.410976
-0.402367
-0.392128
-0.380329
-0.367061
-0.352432
-0.336566
-0.319619
-0.301786
-0.283322
-0.264577
-0.246016
-0.228238
-0.211883
-0.197584
-0.185476
-0.175282
-0.163508
-0.1549
-0.153701
-0.101657
-0.100393
-0.100298
-0.103738
-0.11161
-0.123787
-0.139673
-0.158489
-0.179359
-0.201358
-0.223623
-0.245474
-0.266461
-0.286348
-0.305033
-0.322483
-0.338674
-0.353569
-0.36711
-0.379221
-0.389825
-0.398842
-0.4062
-0.411837
-0.415704
-0.41776
-0.417978
-0.416362
-0.412903
-0.407582
-0.400442
-0.391533
-0.380909
-0.368639
-0.354815
-0.339546
-0.322967
-0.305245
-0.286596
-0.267307
-0.247771
-0.228506
-0.210166
-0.193445
-0.179032
-0.166988
-0.157535
-0.147308
-0.139998
-0.138832
-0.0983714
-0.097203
-0.096702
-0.0988937
-0.104933
-0.115029
-0.128798
-0.145611
-0.164748
-0.185427
-0.206857
-0.228334
-0.249325
-0.269476
-0.288585
-0.306542
-0.323277
-0.338726
-0.352816
-0.365461
-0.376573
-0.386061
-0.393844
-0.39985
-0.404018
-0.406302
-0.406669
-0.405107
-0.401622
-0.396179
-0.388818
-0.37959
-0.368545
-0.355751
-0.3413
-0.325304
-0.307903
-0.289278
-0.269669
-0.2494
-0.22891
-0.208774
-0.189706
-0.172456
-0.157748
-0.145629
-0.136495
-0.127394
-0.121
-0.119807
-0.0952691
-0.0942364
-0.0934976
-0.0946271
-0.0988257
-0.106598
-0.117859
-0.132218
-0.149157
-0.168069
-0.188276
-0.209092
-0.229915
-0.250276
-0.269847
-0.288412
-0.305826
-0.321977
-0.33676
-0.350075
-0.361816
-0.371885
-0.380189
-0.386646
-0.391187
-0.393759
-0.394322
-0.392852
-0.389367
-0.383815
-0.376234
-0.366671
-0.355175
-0.341812
-0.32667
-0.309864
-0.291541
-0.271898
-0.2512
-0.22981
-0.208218
-0.18706
-0.167114
-0.149175
-0.133995
-0.121629
-0.112423
-0.103951
-0.0978931
-0.0963891
-0.0924278
-0.091549
-0.0907252
-0.091037
-0.0935128
-0.09882
-0.107208
-0.118629
-0.132853
-0.149496
-0.168031
-0.18783
-0.208249
-0.228709
-0.248743
-0.268002
-0.286235
-0.303253
-0.318902
-0.333049
-0.345571
-0.356354
-0.365295
-0.372303
-0.377303
-0.380234
-0.38105
-0.379723
-0.376265
-0.370627
-0.362834
-0.35293
-0.340963
-0.326994
-0.311109
-0.293427
-0.274101
-0.253346
-0.231454
-0.208829
-0.186016
-0.163712
-0.142753
-0.123974
-0.108143
-0.0952769
-0.0856721
-0.0772012
-0.0707263
-0.068235
-0.0898799
-0.0891635
-0.0883768
-0.0881281
-0.0890951
-0.0919184
-0.0971425
-0.105153
-0.116117
-0.129954
-0.14633
-0.164708
-0.184429
-0.20482
-0.22527
-0.245278
-0.264456
-0.282509
-0.299211
-0.314377
-0.327853
-0.339507
-0.349223
-0.356902
-0.362462
-0.365836
-0.366977
-0.36585
-0.362458
-0.356766
-0.34878
-0.33854
-0.326094
-0.311501
-0.294844
-0.276245
-0.255867
-0.233942
-0.210791
-0.186861
-0.162748
-0.139208
-0.117123
-0.0973536
-0.0806633
-0.0669876
-0.0566694
-0.0474119
-0.0397006
-0.0349435
-0.0876167
-0.0870756
-0.086416
-0.0858294
-0.0855344
-0.0859597
-0.0878412
-0.0920368
-0.0992251
-0.109722
-0.123446
-0.139982
-0.158681
-0.178789
-0.199557
-0.220321
-0.240535
-0.259774
-0.277709
-0.294086
-0.308704
-0.321404
-0.33205
-0.340536
-0.346772
-0.35069
-0.352237
-0.351377
-0.348106
-0.342403
-0.334257
-0.323705
-0.310796
-0.295587
-0.278163
-0.258646
-0.237214
-0.214115
-0.189699
-0.164451
-0.139011
-0.114177
-0.0908609
-0.0699299
-0.0521192
-0.0372865
-0.0258807
-0.0149087
-0.00545245
0.00354583
-0.0855817
-0.0852461
-0.0847831
-0.0840093
-0.0826517
-0.0808142
-0.0793019
-0.0794154
-0.0824134
-0.0891055
-0.0997328
-0.114035
-0.131393
-0.150985
-0.171932
-0.193407
-0.214698
-0.235228
-0.254545
-0.272305
-0.288246
-0.302164
-0.313902
-0.323339
-0.330379
-0.334949
-0.336996
-0.336486
-0.333404
-0.327749
-0.319497
-0.308683
-0.295357
-0.279579
-0.261438
-0.241062
-0.218638
-0.194434
-0.168822
-0.142314
-0.115575
-0.0894194
-0.0647521
-0.0424158
-0.0230989
-0.00661739
0.00646305
0.0202128
0.0311782
0.0470465
-0.0836544
-0.0835789
-0.0833704
-0.0824644
-0.0801295
-0.0761429
-0.0712984
-0.0672569
-0.0658502
-0.0684375
-0.0756439
-0.0874069
-0.103156
-0.122014
-0.142984
-0.165083
-0.187432
-0.209294
-0.230085
-0.249353
-0.266758
-0.282044
-0.29502
-0.305544
-0.313512
-0.318848
-0.321497
-0.321426
-0.31862
-0.313087
-0.304809
-0.293815
-0.28016
-0.263911
-0.245164
-0.224054
-0.200781
-0.175625
-0.148971
-0.121338
-0.0933837
-0.0658921
-0.0397133
-0.0156104
0.00581675
0.0248097
0.0407716
0.0587558
0.0711371
0.097646
-0.0816412
-0.081892
-0.0819707
-0.080877
-0.0775085
-0.071424
-0.0633997
-0.0553603
-0.0496232
-0.0480752
-0.0517522
-0.0608258
-0.0748
-0.0927624
-0.11361
-0.136217
-0.15955
-0.182717
-0.204997
-0.225825
-0.244773
-0.261521
-0.275838
-0.287556
-0.296557
-0.302759
-0.306109
-0.306575
-0.304141
-0.298823
-0.290623
-0.279567
-0.265716
-0.249149
-0.229971
-0.208329
-0.184432
-0.158562
-0.131101
-0.10254
-0.0734858
-0.0446363
-0.0167203
0.00964652
0.0340299
0.0568585
0.0777399
0.102516
0.119557
0.162661
-0.07933
-0.0799351
-0.0802975
-0.0788518
-0.0742504
-0.0660455
-0.0550821
-0.0434464
-0.0337922
-0.028429
-0.0287695
-0.0352314
-0.0474203
-0.0644137
-0.0850285
-0.108021
-0.132219
-0.156593
-0.180293
-0.202643
-0.223124
-0.241351
-0.257045
-0.270008
-0.280104
-0.287244
-0.291373
-0.292463
-0.290505
-0.285511
-0.27751
-0.266536
-0.252663
-0.235982
-0.21661
-0.194701
-0.170466
-0.144179
-0.116186
-0.0869169
-0.056871
-0.0265916
0.00338961
0.0326875
0.0611213
0.0894398
0.117648
0.152839
0.182654
0.247406
-0.0768265
-0.0776711
-0.0781616
-0.0761092
-0.0700576
-0.0596378
-0.0459906
-0.0313655
-0.0185251
-0.0100224
-0.00755495
-0.0117539
-0.0223379
-0.0384062
-0.0587336
-0.0819931
-0.106905
-0.132327
-0.157296
-0.181036
-0.202948
-0.222579
-0.239601
-0.253786
-0.264978
-0.273077
-0.278028
-0.279806
-0.278411
-0.27386
-0.266191
-0.255451
-0.241736
-0.225159
-0.205845
-0.183949
-0.159668
-0.133247
-0.104974
-0.0751738
-0.0441864
-0.0123249
0.0201849
0.0533381
0.0873799
0.123502
0.162018
0.211689
0.259228
0.337858
-0.0754153
-0.0761073
-0.0762254
-0.0729927
-0.0651113
-0.0524696
-0.036415
-0.0194552
-0.00436142
0.00637262
0.0108574
0.00831835
-0.00104002
-0.0163552
-0.036404
-0.0598219
-0.0852634
-0.111506
-0.137505
-0.162404
-0.185534
-0.206386
-0.224589
-0.23988
-0.252086
-0.261097
-0.266854
-0.269336
-0.26855
-0.264528
-0.257325
-0.246984
-0.233587
-0.217276
-0.198199
-0.176511
-0.152383
-0.126011
-0.0976045
-0.0673595
-0.0354133
-0.00177
0.0338043
0.0719782
0.113921
0.161964
0.217179
0.288329
0.348744
0.423768
-0.0795968
-0.0788887
-0.0772675
-0.0716495
-0.0611032
-0.0458785
-0.0275813
-0.00881085
0.00765957
0.0196249
0.0253275
0.0237747
0.0151575
0.000316228
-0.0195503
-0.0430754
-0.0688859
-0.0957157
-0.122467
-0.148232
-0.172289
-0.194086
-0.213218
-0.229398
-0.242433
-0.252205
-0.25865
-0.26175
-0.261517
-0.257991
-0.251232
-0.241331
-0.228363
-0.212406
-0.193614
-0.172161
-0.148208
-0.121905
-0.0933795
-0.0626899
-0.0297487
0.00581195
0.0448436
0.0890632
0.141393
0.207059
0.290863
0.402832
0.495165
0.602806
-0.103023
-0.0951903
-0.086731
-0.0759364
-0.0615773
-0.043264
-0.022642
-0.00228586
0.0153631
0.0280995
0.0342427
0.0331121
0.0249024
0.0104054
-0.00922537
-0.0326574
-0.0585329
-0.0855813
-0.112686
-0.13891
-0.1635
-0.185876
-0.205602
-0.222371
-0.235976
-0.246285
-0.253231
-0.256792
-0.25698
-0.253837
-0.247429
-0.237839
-0.225164
-0.20951
-0.191001
-0.169771
-0.145967
-0.119709
-0.0910575
-0.0599459
-0.0260692
0.0113195
0.0537384
0.104112
0.167573
0.253622
0.374943
0.555065
0.767127
1.10737
-0.189845
-0.112077
-0.0804776
-0.0712445
-0.0579731
-0.038621
-0.0169602
0.00399955
0.0217557
0.0341407
0.0397572
0.038127
0.0295256
0.0147734
-0.00498327
-0.0284483
-0.0543095
-0.0813354
-0.108435
-0.134688
-0.159344
-0.181821
-0.201679
-0.218604
-0.23238
-0.242871
-0.250004
-0.253754
-0.254132
-0.251179
-0.244957
-0.235551
-0.223056
-0.207582
-0.189245
-0.168173
-0.144497
-0.118309
-0.0896127
-0.0582442
-0.023734
0.0149454
0.0597896
0.114546
0.185778
0.285838
0.434624
0.679773
1.07889
1.82815
)
;

boundaryField
{
    movingWall
    {
        type            zeroGradient;
    }
    fixedWalls
    {
        type            zeroGradient;
    }
    frontAndBack
    {
        type            empty;
    }
}


// ************************************************************************* //
