/*--------------------------------*- C++ -*----------------------------------*\
  =========                 |
  \\      /  F ield         | OpenFOAM: The Open Source CFD Toolbox
   \\    /   O peration     | Website:  https://openfoam.org
    \\  /    A nd           | Version:  7
     \\/     M anipulation  |
\*---------------------------------------------------------------------------*/
FoamFile
{
    version     2.0;
    format      ascii;
    class       surfaceScalarField;
    location    "450";
    object      phi;
}
// * * * * * * * * * * * * * * * * * * * * * * * * * * * * * * * * * * * * * //

dimensions      [0 3 -1 0 0 0 0];

internalField   nonuniform List<scalar> 
4900
(
1.70214e-06
-1.70583e-06
6.22929e-06
-4.52698e-06
1.17232e-05
-5.4947e-06
1.65088e-05
-4.78658e-06
1.97548e-05
-3.24683e-06
2.13921e-05
-1.63797e-06
2.17686e-05
-3.77167e-07
2.12607e-05
5.07392e-07
2.00107e-05
1.24952e-06
1.78536e-05
2.15665e-06
1.43954e-05
3.4578e-06
9.14844e-06
5.24651e-06
1.62099e-06
7.52705e-06
-8.63974e-06
1.02604e-05
-2.19839e-05
1.33438e-05
-3.85745e-05
1.65904e-05
-5.83164e-05
1.97415e-05
-8.07738e-05
2.24572e-05
-0.000105108
2.4334e-05
-0.000130062
2.49533e-05
-0.000154006
2.3944e-05
-0.000175053
2.10469e-05
-0.000191219
1.61663e-05
-0.000200628
9.40844e-06
-0.000201755
1.1266e-06
-0.000193655
-8.09995e-06
-0.00017608
-1.75748e-05
-0.000149548
-2.65319e-05
-0.00011535
-3.41986e-05
-7.55078e-05
-3.98422e-05
-3.26721e-05
-4.28358e-05
1.00425e-05
-4.27148e-05
4.9376e-05
-3.93336e-05
8.24704e-05
-3.30945e-05
0.000107144
-2.46735e-05
0.000122124
-1.49806e-05
0.000127289
-5.16534e-06
0.000123714
3.57548e-06
0.000113391
1.03223e-05
9.87135e-05
1.46778e-05
8.20253e-05
1.66881e-05
6.52681e-05
1.67571e-05
4.97914e-05
1.54766e-05
3.63329e-05
1.34584e-05
2.51228e-05
1.121e-05
1.6055e-05
9.06773e-06
8.90366e-06
7.15121e-06
3.60005e-06
5.3035e-06
5.07127e-07
3.09281e-06
5.07106e-07
4.4788e-06
-6.18396e-06
1.38561e-05
-1.39054e-05
2.4318e-05
-1.59587e-05
3.29024e-05
-1.33732e-05
3.79982e-05
-8.34456e-06
3.92156e-05
-2.85708e-06
3.68364e-05
2.00059e-06
3.11661e-05
6.17638e-06
2.20946e-05
1.03198e-05
8.99166e-06
1.52584e-05
-9.14203e-06
2.15903e-05
-3.34087e-05
2.95122e-05
-6.47087e-05
3.88261e-05
-0.000103481
4.90322e-05
-0.000149496
5.93572e-05
-0.000201688
6.87824e-05
-0.000258109
7.61617e-05
-0.000316044
8.03915e-05
-0.000372292
8.05817e-05
-0.000423515
7.61765e-05
-0.000466575
6.70037e-05
-0.000498792
5.32637e-05
-0.000518112
3.54859e-05
-0.000523193
1.44887e-05
-0.000513489
-8.57788e-06
-0.000489093
-3.24962e-05
-0.00045064
-5.60276e-05
-0.000399332
-7.78407e-05
-0.000336993
-9.65375e-05
-0.000266095
-0.00011074
-0.000189727
-0.000119204
-0.000111463
-0.000120979
-3.5183e-05
-0.000115614
3.50376e-05
-0.000103315
9.55005e-05
-8.51367e-05
0.000143386
-6.28661e-05
0.000176765
-3.85449e-05
0.000194843
-1.45026e-05
0.000198204
6.9607e-06
0.000188939
2.39423e-05
0.000170193
3.54342e-05
0.000145556
4.13943e-05
0.000118439
4.25931e-05
9.16127e-05
4.02844e-05
6.69484e-05
3.5874e-05
4.54377e-05
3.05782e-05
2.74741e-05
2.51146e-05
1.33441e-05
1.94332e-05
3.75885e-06
1.26779e-05
4.26592e-06
5.99006e-06
-1.21741e-05
1.73405e-05
-2.52565e-05
2.87998e-05
-2.74194e-05
3.68099e-05
-2.1385e-05
3.95099e-05
-1.10463e-05
3.63112e-05
3.39976e-07
2.71499e-05
1.11605e-05
1.1816e-05
2.15089e-05
-1.04585e-05
3.25931e-05
-4.09534e-05
4.57522e-05
-8.10292e-05
6.16653e-05
-0.000131608
8.00904e-05
-0.000192752
9.99695e-05
-0.000263351
0.000119631
-0.000341052
0.000137058
-0.000422491
0.000150221
-0.000503748
0.000157418
-0.000580866
0.00015751
-0.000650301
0.000150016
-0.000709192
0.000135067
-0.000755458
0.000113269
-0.000787747
8.55526e-05
-0.0008053
5.30384e-05
-0.000807768
1.69564e-05
-0.000795019
-2.1327e-05
-0.000767069
-6.04461e-05
-0.000724228
-9.88691e-05
-0.000667225
-0.000134843
-0.000597296
-0.000166467
-0.000516282
-0.000191755
-0.000426699
-0.000208787
-0.000331742
-0.000215937
-0.000235193
-0.000212163
-0.000141188
-0.000197321
-5.3957e-05
-0.000172368
2.25309e-05
-0.000139354
8.52951e-05
-0.000101309
0.000132541
-6.17483e-05
0.000163298
-2.37969e-05
0.000177705
9.53447e-06
0.000177294
3.58451e-05
0.000164862
5.38263e-05
0.000143955
6.35002e-05
0.000118254
6.59846e-05
9.10237e-05
6.31044e-05
6.47407e-05
5.6861e-05
4.10682e-05
4.87868e-05
2.12114e-05
3.92897e-05
6.60901e-06
2.72801e-05
1.08749e-05
6.5091e-06
-1.86829e-05
1.75921e-05
-3.634e-05
2.6934e-05
-3.67626e-05
3.0721e-05
-2.51735e-05
2.71479e-05
-7.47472e-06
1.55206e-05
1.19658e-05
-4.69886e-06
3.13787e-05
-3.45281e-05
5.1337e-05
-7.54926e-05
7.35565e-05
-0.000129069
9.93274e-05
-0.000195982
0.000128578
-0.000275646
0.000159754
-0.000365924
0.000190247
-0.000463319
0.000217025
-0.00056351
0.000237248
-0.000662047
0.000248757
-0.000754952
0.000250323
-0.000839091
0.000241649
-0.00091226
0.000223185
-0.000973064
0.00019587
-0.00102068
0.000160886
-0.00105463
0.000119497
-0.00107455
7.29672e-05
-0.00108015
2.2552e-05
-0.00107103
-3.04521e-05
-0.00104687
-8.45991e-05
-0.00100754
-0.000138204
-0.000953086
-0.000189295
-0.000883927
-0.000235625
-0.000800987
-0.000274695
-0.000705889
-0.000303885
-0.000601117
-0.000320709
-0.000490083
-0.000323196
-0.000377058
-0.000310347
-0.000266873
-0.000282553
-0.000164384
-0.000241843
-7.3915e-05
-0.000191779
1.25336e-06
-0.000136917
5.95393e-05
-8.20831e-05
0.000100639
-3.15651e-05
0.000124806
1.16774e-05
0.000133328
4.53046e-05
0.000128704
6.81232e-05
0.00011423
8.04589e-05
9.34861e-05
8.3848e-05
6.98363e-05
8.05105e-05
4.60996e-05
7.25233e-05
2.46296e-05
6.07596e-05
7.92658e-06
4.39828e-05
1.88015e-05
6.20193e-06
-2.4885e-05
1.48787e-05
-4.50175e-05
1.91665e-05
-4.10514e-05
1.54064e-05
-2.14146e-05
2.05181e-06
5.87844e-06
-2.17835e-05
3.57998e-05
-5.72798e-05
6.68738e-05
-0.000106165
0.000100221
-0.000170062
0.000137452
-0.000249525
0.00017879
-0.000343359
0.000222412
-0.000448534
0.000264929
-0.000560659
0.000302371
-0.000674783
0.000331149
-0.00078623
0.000348695
-0.000891183
0.00035371
-0.000986921
0.00034606
-0.00107174
0.000326465
-0.00114468
0.000296132
-0.00120529
0.000256471
-0.0012533
0.000208904
-0.00128859
0.000154787
-0.00131102
9.53956e-05
-0.00132043
3.19564e-05
-0.00131654
-3.43423e-05
-0.00129899
-0.000102146
-0.0012673
-0.000169892
-0.0012209
-0.000235694
-0.00115926
-0.000297271
-0.00108207
-0.000351883
-0.000989571
-0.000396383
-0.000882858
-0.000427422
-0.000764215
-0.000441839
-0.000637332
-0.00043723
-0.000507265
-0.00041262
-0.000380041
-0.000369066
-0.000261866
-0.000309954
-0.000158048
-0.000240736
-7.2121e-05
-0.00016801
-5.53715e-06
-9.81492e-05
4.22414e-05
-3.61014e-05
7.24619e-05
1.50839e-05
8.67265e-05
5.38583e-05
8.75598e-05
7.96253e-05
7.81685e-05
9.32391e-05
6.20633e-05
9.66154e-05
4.27057e-05
9.18807e-05
2.33913e-05
8.00737e-05
7.59789e-06
5.9776e-05
2.63993e-05
4.88958e-06
-2.97747e-05
8.84813e-06
-4.89768e-05
5.22414e-06
-3.74284e-05
-9.02968e-06
-7.16196e-06
-3.52587e-05
3.21063e-05
-7.4628e-05
7.51681e-05
-0.000128858
0.000121103
-0.000199693
0.000171056
-0.000287683
0.000225441
-0.000391289
0.000282396
-0.000506852
0.000337975
-0.000629299
0.000387375
-0.000753175
0.000426247
-0.000873575
0.000451549
-0.000986702
0.000461822
-0.00109001
0.000457014
-0.00118201
0.000438068
-0.00126203
0.000406482
-0.00132987
0.000363974
-0.00138567
0.000312271
-0.00142976
0.00025299
-0.00146256
0.000187583
-0.00148449
0.000117324
-0.00149587
4.33372e-05
-0.0014968
-3.34088e-05
-0.00148705
-0.000111896
-0.001466
-0.000190947
-0.00143259
-0.000269098
-0.00138545
-0.000344417
-0.00132299
-0.000414342
-0.00124376
-0.000475609
-0.00114687
-0.000524318
-0.0010325
-0.000556212
-0.000902504
-0.000567223
-0.000760844
-0.00055428
-0.000613635
-0.000516276
-0.000468656
-0.000454933
-0.000334166
-0.000375225
-0.000217241
-0.000284935
-0.000122201
-0.000193189
-5.0018e-05
-0.000108285
9.37264e-07
-3.58717e-05
3.32675e-05
2.15278e-05
4.95255e-05
6.33671e-05
5.26686e-05
9.00958e-05
4.61093e-05
0.000103174
3.35498e-05
0.00010444
1.88508e-05
9.47725e-05
6.10667e-06
7.25199e-05
3.2506e-05
2.25894e-06
-3.2034e-05
-9.63914e-07
-4.57547e-05
-1.50975e-05
-2.32957e-05
-4.23311e-05
2.00707e-05
-8.38489e-05
7.36232e-05
-0.000141086
0.000132405
-0.00021574
0.000195756
-0.000308478
0.000263794
-0.000417749
0.000334712
-0.000539593
0.00040424
-0.000668452
0.000466833
-0.000798388
0.000517311
-0.000924133
0.000551992
-0.00104168
0.000569092
-0.00114838
0.00056852
-0.00124276
0.000551404
-0.00132428
0.00051958
-0.001393
0.000475206
-0.00144951
0.000420484
-0.00149473
0.000357486
-0.00152977
0.000288033
-0.00155581
0.000213622
-0.0015739
0.000135419
-0.00158487
5.43064e-05
-0.0015892
-2.90784e-05
-0.0015869
-0.000114196
-0.00157744
-0.000200408
-0.00155964
-0.000286896
-0.00153168
-0.000372385
-0.0014911
-0.000454922
-0.00143503
-0.000531672
-0.00136055
-0.000598797
-0.00126526
-0.0006515
-0.00114811
-0.000684375
-0.00101028
-0.000692117
-0.000855916
-0.000670636
-0.000692429
-0.000618421
-0.00052985
-0.000537804
-0.000379197
-0.000435589
-0.00024996
-0.000322426
-0.000147636
-0.00021061
-7.27026e-05
-0.000110805
-2.18673e-05
-2.93077e-05
9.1921e-06
3.23075e-05
2.43359e-05
7.49518e-05
2.73474e-05
0.000100163
2.2183e-05
0.000109604
1.30219e-05
0.000103933
4.20513e-06
8.13366e-05
3.67111e-05
-1.94008e-06
-3.00942e-05
-1.47193e-05
-3.29764e-05
-4.14394e-05
3.42346e-06
-8.3388e-05
6.20185e-05
-0.000141577
0.000131812
-0.000217403
0.000208229
-0.000311637
0.00028999
-0.000422983
0.000375139
-0.000547532
0.000459261
-0.000679468
0.000536175
-0.0008124
0.000599765
-0.000940569
0.000645479
-0.00105954
0.000670962
-0.00116636
0.000675915
-0.00125943
0.000661584
-0.00133821
0.000630184
-0.00140304
0.000584417
-0.00145495
0.000527115
-0.00149544
0.000460965
-0.00152626
0.00038831
-0.00154926
0.000311029
-0.00156613
0.000230495
-0.00157833
0.000147617
-0.00158695
6.2932e-05
-0.00159273
-2.32983e-05
-0.00159594
-0.000110995
-0.0015963
-0.000200046
-0.00159291
-0.00029028
-0.00158411
-0.000381186
-0.00156735
-0.000471685
-0.00153917
-0.000559853
-0.00149535
-0.000642617
-0.00143132
-0.000715535
-0.00134292
-0.000772775
-0.00122754
-0.000807493
-0.00108543
-0.000812741
-0.000920878
-0.000782976
-0.000742717
-0.000715965
-0.000563686
-0.00061462
-0.000398153
-0.000487958
-0.000258524
-0.000350239
-0.000151588
-0.000217741
-7.70132e-05
-0.000103883
-2.93475e-05
-1.53584e-05
-2.16463e-06
4.77687e-05
9.90806e-06
8.80898e-05
1.16879e-05
0.000107824
7.76955e-06
0.000107852
2.59424e-06
8.65117e-05
3.93053e-05
-7.77354e-06
-2.23211e-05
-3.19754e-05
-8.77542e-06
-7.26252e-05
4.40726e-05
-0.000129977
0.00011937
-0.00020485
0.000206684
-0.000297966
0.000301345
-0.000408419
0.000400442
-0.000532684
0.000499404
-0.000664974
0.000591551
-0.000798555
0.000669756
-0.000927116
0.000728326
-0.00104565
0.000764015
-0.00115076
0.000776067
-0.00124056
0.000765718
-0.00131452
0.000735542
-0.0013732
0.000688861
-0.00141803
0.000629253
-0.00145106
0.000560146
-0.00147462
0.000484518
-0.00149102
0.000404718
-0.00150241
0.000322414
-0.00151056
0.00023865
-0.00151691
0.000153964
-0.00152251
6.85269e-05
-0.00152808
-1.77269e-05
-0.00153404
-0.000105033
-0.00154045
-0.000193638
-0.00154692
-0.000283808
-0.00155246
-0.000375648
-0.00155521
-0.000468937
-0.00155221
-0.000562855
-0.00153921
-0.000655612
-0.00151074
-0.000744003
-0.00146052
-0.000822996
-0.00138243
-0.000885588
-0.001272
-0.000923165
-0.00112832
-0.00092666
-0.00095571
-0.000888574
-0.000764667
-0.000805663
-0.000571063
-0.000681563
-0.00039311
-0.000528191
-0.000246352
-0.0003645
-0.000138548
-0.000211687
-6.7822e-05
-8.60844e-05
-2.59837e-05
5.93009e-06
-4.37241e-06
6.64783e-05
3.83239e-06
9.96191e-05
4.26344e-06
0.00010742
1.70939e-06
8.90656e-05
4.10147e-05
-1.4967e-05
-7.35434e-06
-5.17467e-05
2.80035e-05
-0.000106616
9.8941e-05
-0.000178895
0.000191648
-0.000268929
0.000296718
-0.000376164
0.00040858
-0.000497717
0.000521994
-0.000628177
0.000629864
-0.000760686
0.000724059
-0.000888425
0.000797495
-0.00100574
0.000845645
-0.00110866
0.000866934
-0.00119495
0.00086235
-0.00126396
0.000834729
-0.00131644
0.000788027
-0.00135424
0.000726653
-0.00137988
0.000654893
-0.00139619
0.000576464
-0.00140593
0.000494252
-0.00141146
0.000410246
-0.00141468
0.000325635
-0.00141701
0.000240984
-0.00141947
0.000156428
-0.00142278
7.18364e-05
-0.00142745
-1.30618e-05
-0.00143386
-9.8622e-05
-0.00144229
-0.000185211
-0.00145286
-0.000273233
-0.00146542
-0.000363094
-0.00147922
-0.000455132
-0.00149262
-0.000549455
-0.00150261
-0.000645627
-0.00150444
-0.000742167
-0.00149155
-0.000835886
-0.00145593
-0.000921212
-0.00138929
-0.000989803
-0.00128508
-0.00103087
-0.001141
-0.00103265
-0.000961489
-0.000985171
-0.000759048
-0.000884004
-0.000553226
-0.000734013
-0.000366483
-0.000551243
-0.000217304
-0.000360866
-0.000113444
-0.000189944
-5.02676e-05
-5.72468e-05
-1.63927e-05
3.26032e-05
-1.32252e-06
8.45487e-05
2.73284e-06
0.000103365
1.64416e-06
9.0154e-05
4.26588e-05
-2.30202e-05
1.56655e-05
-7.25196e-05
7.75023e-05
-0.000140815
0.000167236
-0.000226385
0.000277219
-0.000328698
0.000399031
-0.000445613
0.000525494
-0.000572448
0.000648829
-0.000702562
0.000759978
-0.0008288
0.000850297
-0.000944865
0.00091356
-0.00104611
0.00094689
-0.00112981
0.000950632
-0.00119511
0.000927651
-0.00124284
0.000882459
-0.00127516
0.000820345
-0.00129507
0.000746568
-0.00130589
0.000665712
-0.00131072
0.000581297
-0.00131215
0.000495681
-0.00131209
0.000410186
-0.00131182
0.000325366
-0.00131213
0.000241285
-0.00131344
0.000157743
-0.00131603
7.44274e-05
-0.0013201
-8.99263e-06
-0.00132589
-9.28325e-05
-0.00133371
-0.00017739
-0.00134397
-0.000262973
-0.00135709
-0.000349973
-0.00137334
-0.000438882
-0.00139253
-0.000530273
-0.0014135
-0.000624657
-0.00143354
-0.000722127
-0.00144771
-0.00082171
-0.00144852
-0.000920406
-0.0014262
-0.00101213
-0.00137013
-0.00108694
-0.00127142
-0.00113136
-0.00112639
-0.0011302
-0.000939883
-0.00107051
-0.000727045
-0.000946851
-0.000511856
-0.000766432
-0.000321278
-0.000551445
-0.000175915
-0.000335308
-8.16891e-05
-0.000151472
-2.96711e-05
-1.9415e-05
-5.42736e-06
6.03048e-05
2.47676e-06
9.54604e-05
2.1768e-06
9.04539e-05
4.48356e-05
-3.11894e-05
4.68548e-05
-9.24804e-05
0.000138793
-0.000172486
0.000247241
-0.000268725
0.000373458
-0.000379528
0.000509834
-0.000501197
0.000647163
-0.000627732
0.000775364
-0.000751955
0.0008842
-0.000867031
0.000965374
-0.00096759
0.00101412
-0.00105026
0.00102956
-0.0011138
0.00101417
-0.00115893
0.000972785
-0.00118801
0.000911535
-0.00120442
0.000836753
-0.00121191
0.000754059
-0.00121397
0.00066777
-0.00121338
0.000580716
-0.0012121
0.000494397
-0.00121126
0.000409343
-0.00121139
0.000325495
-0.00121263
0.000242531
-0.00121495
0.00016006
-0.00121825
7.77289e-05
-0.0012225
-4.746e-06
-0.00122777
-8.75643e-05
-0.00123428
-0.000170879
-0.00124243
-0.000254819
-0.00125282
-0.000339589
-0.00126617
-0.000425532
-0.00128323
-0.000513207
-0.00130446
-0.000603426
-0.00132943
-0.000697165
-0.00135595
-0.000795181
-0.00137917
-0.000897192
-0.00139076
-0.00100054
-0.00137916
-0.00109854
-0.00133123
-0.00117929
-0.00123562
-0.00122581
-0.00108744
-0.00121869
-0.00089266
-0.00114163
-0.000670203
-0.000988889
-0.000449426
-0.000772222
-0.000261684
-0.00052305
-0.000127841
-0.000285315
-4.92068e-05
-9.80493e-05
-1.1313e-05
2.24109e-05
2.13862e-06
8.20087e-05
2.87472e-06
8.97176e-05
4.77103e-05
-3.85997e-05
8.54542e-05
-0.000109902
0.000210095
-0.000199147
0.000336485
-0.000302781
0.000477092
-0.000417936
0.000624988
-0.000539645
0.000768872
-0.000661162
0.00089688
-0.000775376
0.000998415
-0.000876219
0.00106622
-0.00095954
0.00109744
-0.00102346
0.00109349
-0.00106837
0.00105908
-0.00109657
0.00100098
-0.00111167
0.000926639
-0.00111781
0.000842888
-0.00111883
0.000755081
-0.00111778
0.000666722
-0.00111667
0.00057961
-0.00111657
0.000494291
-0.00111781
0.000410583
-0.00112032
0.000328002
-0.00112382
0.000246037
-0.00112803
0.000164271
-0.00113272
8.24126e-05
-0.00113774
2.78655e-07
-0.00114309
-8.22199e-05
-0.00114885
-0.000165114
-0.00115527
-0.000248396
-0.00116278
-0.000332084
-0.00117203
-0.00041628
-0.00118397
-0.000501263
-0.00119977
-0.000587633
-0.00122051
-0.000676426
-0.00124657
-0.000769115
-0.00127653
-0.000867234
-0.00130571
-0.000971352
-0.00132504
-0.00107921
-0.00132099
-0.00118335
-0.00127765
-0.00126914
-0.00118127
-0.00131507
-0.00102637
-0.00129653
-0.00082136
-0.0011939
-0.000590586
-0.001003
-0.000369783
-0.000743852
-0.0001937
-0.000461399
-8.00252e-05
-0.000211724
-2.1987e-05
-3.56274e-05
2.22816e-07
5.97986e-05
3.26402e-06
8.66763e-05
5.09743e-05
-4.44849e-05
0.000129939
-0.000123357
0.000288967
-0.000218886
0.000432014
-0.000326384
0.00058459
-0.000441901
0.000740506
-0.000559621
0.000886591
-0.000672596
0.00100986
-0.000774243
0.00110006
-0.00085957
0.00115154
-0.000925847
0.00116372
-0.000972797
0.00114043
-0.00100238
0.00108866
-0.00101819
0.0010168
-0.00102461
0.000933056
-0.00102584
0.000844119
-0.00102523
0.000754471
-0.00102495
0.000666441
-0.00102605
0.00058071
-0.00102877
0.000497007
-0.00103286
0.000414681
-0.00103794
0.000333075
-0.00104359
0.000251685
-0.0010495
0.000170187
-0.00105549
8.83973e-05
-0.00106144
6.22991e-06
-0.00106732
-7.63349e-05
-0.00107317
-0.00015927
-0.00107904
-0.000242521
-0.00108512
-0.000326009
-0.00109173
-0.000409668
-0.00109949
-0.000493499
-0.00110943
-0.000577699
-0.00112299
-0.000662866
-0.00114187
-0.000750237
-0.00116729
-0.000841809
-0.00119864
-0.00094
-0.0012315
-0.00104636
-0.00125586
-0.00115899
-0.0012559
-0.0012691
-0.00121274
-0.00135823
-0.0011105
-0.00139877
-0.000944363
-0.00136004
-0.000727323
-0.00122004
-0.000491304
-0.000979872
-0.000278887
-0.000673816
-0.000125334
-0.000365277
-3.97059e-05
-0.000121255
-4.41914e-06
2.45117e-05
3.02016e-06
7.92368e-05
5.39944e-05
-4.82764e-05
0.000178215
-0.000131866
0.000372556
-0.000230531
0.00053068
-0.000338456
0.000692514
-0.00045085
0.0008529
-0.000561487
0.000997228
-0.000663668
0.00111204
-0.000751659
0.00118805
-0.000821735
0.00122162
-0.000872659
0.00121464
-0.00090568
0.00117346
-0.000924055
0.00110703
-0.000932183
0.00102492
-0.000934561
0.000935434
-0.000934891
0.000844449
-0.000935608
0.000755189
-0.000937876
0.000668708
-0.000941902
0.000584736
-0.000947358
0.000502463
-0.000953743
0.000421066
-0.000960597
0.000339929
-0.000967596
0.000258683
-0.000974552
0.000177143
-0.000981383
9.52284e-05
-0.000988069
1.29159e-05
-0.000994613
-6.9791e-05
-0.00100102
-0.000152865
-0.00100727
-0.000236267
-0.00101336
-0.000319917
-0.00101933
-0.000403702
-0.00102535
-0.000487483
-0.00103189
-0.000571156
-0.00103994
-0.000654811
-0.00105117
-0.000739009
-0.00106781
-0.000825173
-0.00109192
-0.000915883
-0.0011237
-0.00101458
-0.0011588
-0.00112389
-0.00118587
-0.00124203
-0.00118627
-0.00135784
-0.0011379
-0.00144714
-0.00102363
-0.00147431
-0.000841536
-0.00140213
-0.000612266
-0.00120914
-0.00037753
-0.000908551
-0.000185538
-0.00055727
-6.59106e-05
-0.000240882
-1.23581e-05
-2.9041e-05
2.02847e-06
6.48502e-05
5.60229e-05
-4.96471e-05
0.000227862
-0.000134944
0.000457852
-0.000233665
0.000629401
-0.000338939
0.000797788
-0.000445424
0.000959385
-0.00054688
0.00109868
-0.000637185
0.00120234
-0.000711654
0.00126252
-0.000767886
0.00127785
-0.000806063
0.00125282
-0.000828701
0.00119609
-0.000839906
0.00111824
-0.000844298
0.00102932
-0.000845942
0.000937079
-0.00084766
0.000846167
-0.00085087
0.000758399
-0.000855871
0.000673709
-0.00086231
0.000591175
-0.000869621
0.000509775
-0.000877296
0.000428741
-0.000884998
0.000347631
-0.000892561
0.000266247
-0.000899946
0.000184528
-0.000907181
0.000102463
-0.000914316
2.00507e-05
-0.000921394
-6.27125e-05
-0.00092843
-0.000145829
-0.000935399
-0.000229298
-0.000942228
-0.000313088
-0.000948805
-0.000397124
-0.000955021
-0.000481267
-0.000960868
-0.000565309
-0.000966642
-0.000649037
-0.000973242
-0.000732409
-0.000982484
-0.000815931
-0.000997125
-0.000901242
-0.00102007
-0.000991636
-0.00105217
-0.00109178
-0.00108876
-0.00120544
-0.00111634
-0.00133026
-0.00111264
-0.00145084
-0.00105249
-0.00153446
-0.00091929
-0.00153533
-0.000717609
-0.00141082
-0.000479616
-0.00114654
-0.000257941
-0.000778946
-0.000101412
-0.000397411
-2.3755e-05
-0.000106698
2.96055e-07
4.0799e-05
5.63189e-05
-4.85129e-05
0.000276375
-0.000132566
0.000541905
-0.00022853
0.000725365
-0.000328588
0.000897846
-0.000427132
0.00105793
-0.000518224
0.00118978
-0.000596532
0.00128065
-0.00065849
0.00132448
-0.000702962
0.00132232
-0.000731322
0.00128118
-0.000746965
0.00121174
-0.000754335
0.00112561
-0.000757762
0.00103274
-0.000760526
0.000939843
-0.000764463
0.000850103
-0.000770113
0.000764049
-0.000777197
0.000680793
-0.000785123
0.000599101
-0.000793336
0.000517988
-0.000801474
0.000436879
-0.000809378
0.000355535
-0.000817035
0.000273904
-0.000824511
0.000192004
-0.000831897
0.000109849
-0.000839278
2.74317e-05
-0.000846718
-5.52721e-05
-0.000854246
-0.000138301
-0.000861856
-0.000221688
-0.000869489
-0.000305455
-0.000877021
-0.000389593
-0.000884256
-0.000474031
-0.000890955
-0.00055861
-0.000896934
-0.000643058
-0.000902304
-0.000727039
-0.000907872
-0.000810363
-0.00091562
-0.000893494
-0.000928865
-0.000978391
-0.000951328
-0.00106932
-0.000984269
-0.0011725
-0.00102186
-0.00129267
-0.00104722
-0.00142547
-0.00103363
-0.00154805
-0.000953734
-0.00161522
-0.000794947
-0.00156961
-0.000573458
-0.00136803
-0.000336728
-0.00101568
-0.00014594
-0.0005882
-3.89835e-05
-0.000213655
-2.3162e-06
4.13175e-06
5.40027e-05
-4.49953e-05
0.000321371
-0.000125077
0.000621987
-0.000215861
0.000816149
-0.00030871
0.000990695
-0.000397987
0.00114721
-0.000478282
0.00127007
-0.000545161
0.00134753
-0.000596141
0.00137546
-0.000631169
0.00135735
-0.000652489
0.0013025
-0.000663938
0.00122319
-0.00066984
0.00113151
-0.000673889
0.00103679
-0.000678459
0.000944413
-0.000684508
0.000856152
-0.000691967
0.000771508
-0.000700286
0.000689111
-0.000708871
0.000607687
-0.00071732
0.000526436
-0.000725455
0.000445015
-0.000733273
0.000363353
-0.00074086
0.000281491
-0.000748331
0.000199475
-0.000755795
0.000117314
-0.000763341
3.49774e-05
-0.000771032
-4.75812e-05
-0.000778902
-0.00013043
-0.000786963
-0.000213627
-0.00079519
-0.000297228
-0.000803503
-0.000381279
-0.000811745
-0.000465789
-0.00081966
-0.000550695
-0.0008269
-0.000635818
-0.000833125
-0.000720814
-0.000838281
-0.000805206
-0.000843124
-0.000888651
-0.000849886
-0.000971629
-0.000862555
-0.00105665
-0.000885634
-0.00114942
-0.000920228
-0.00125808
-0.000957995
-0.0013877
-0.000977013
-0.00152903
-0.000945676
-0.00164656
-0.000837087
-0.0016782
-0.000648485
-0.00155663
-0.000413952
-0.00125021
-0.000197456
-0.000804695
-5.86981e-05
-0.000352413
-5.87927e-06
-4.86872e-05
4.81234e-05
-3.93686e-05
0.000360739
-0.000113081
0.0006957
-0.000196704
0.000899773
-0.0002809
0.00107489
-0.00036018
0.00122649
-0.0004298
0.00133969
-0.000486235
0.00140396
-0.000527963
0.00141719
-0.000555755
0.00138514
-0.000572363
0.0013191
-0.000581659
0.00123248
-0.000587515
0.00113736
-0.000592838
0.00104212
-0.000599155
0.00095073
-0.000606778
0.000863775
-0.000615309
0.000780039
-0.000624155
0.000697958
-0.00063286
0.000616392
-0.000641204
0.00053478
-0.000649169
0.000452979
-0.000656847
0.000371031
-0.00066437
0.000289014
-0.00067186
0.000206965
-0.00067942
0.000124874
-0.000687122
4.268e-05
-0.000695022
-3.96812e-05
-0.000703151
-0.000122302
-0.000711525
-0.000205252
-0.000720143
-0.00028861
-0.00072897
-0.000372452
-0.000737917
-0.000456842
-0.000746805
-0.000541808
-0.00075533
-0.000627293
-0.000763052
-0.000713091
-0.000769495
-0.000798763
-0.000774477
-0.000883669
-0.000778793
-0.000967313
-0.000785106
-0.00105034
-0.000798256
-0.00113627
-0.000823372
-0.00123296
-0.000860333
-0.00135074
-0.000896174
-0.00149319
-0.000902123
-0.00164061
-0.000842829
-0.00173749
-0.000697465
-0.001702
-0.000481414
-0.00146626
-0.000251891
-0.00103422
-8.30421e-05
-0.000521262
-1.0374e-05
-0.000121355
3.77495e-05
-3.20056e-05
0.000392745
-9.73259e-05
0.00076102
-0.000172245
0.000974692
-0.000246827
0.00114947
-0.000315836
0.0012955
-0.000375257
0.00139911
-0.000422414
0.00145112
-0.000456561
0.00145134
-0.000479005
0.00140759
-0.000492655
0.00133276
-0.000501107
0.00124093
-0.000507591
0.00114385
-0.000514231
0.00104876
-0.000521881
0.000958381
-0.000530455
0.000872349
-0.000539445
0.00078903
-0.000548357
0.00070687
-0.000556905
0.00062494
-0.000565029
0.000542904
-0.00057281
0.000460761
-0.000580388
0.000378609
-0.000587898
0.000296524
-0.000595451
0.000214519
-0.000603133
0.000132556
-0.000611002
5.05496e-05
-0.000619105
-3.15783e-05
-0.000627464
-0.000113942
-0.000636098
-0.000196619
-0.00064501
-0.000279697
-0.000654189
-0.000363273
-0.000663593
-0.000447438
-0.000673124
-0.000532276
-0.000682586
-0.000617831
-0.000691629
-0.000704047
-0.000699725
-0.000790667
-0.000706274
-0.00087712
-0.00071103
-0.000962557
-0.000714994
-0.00104638
-0.000721545
-0.00112972
-0.000736583
-0.00121792
-0.000765346
-0.00132198
-0.000804513
-0.00145403
-0.000833621
-0.0016115
-0.000816168
-0.00175495
-0.000717511
-0.00180066
-0.000532521
-0.00165125
-0.000303982
-0.00126276
-0.000111007
-0.000714236
-1.58031e-05
-0.000216559
2.19464e-05
-2.33309e-05
0.000416076
-7.86185e-05
0.000816308
-0.000143684
0.00103976
-0.000208078
0.00121387
-0.000266861
0.00135428
-0.000316738
0.00144899
-0.00035578
0.00149016
-0.000383806
0.00147936
-0.000402374
0.00142616
-0.000414265
0.00134465
-0.000422584
0.00124925
-0.000429863
0.00115113
-0.000437549
0.00105644
-0.000446026
0.000966858
-0.000455014
0.000881337
-0.000464044
0.00079806
-0.000472765
0.000715591
-0.000481048
0.000633223
-0.000488939
0.000550795
-0.00049657
0.000468392
-0.000504089
0.000386128
-0.000511617
0.000304052
-0.000519249
0.000222152
-0.000527056
0.000140364
-0.000535092
5.85852e-05
-0.000543396
-2.32736e-05
-0.000551987
-0.00010535
-0.000560877
-0.000187728
-0.000570069
-0.000270504
-0.000579557
-0.000353785
-0.000589319
-0.000437676
-0.000599305
-0.00052229
-0.000609406
-0.000607729
-0.000619402
-0.000694052
-0.000628885
-0.000781184
-0.000637231
-0.000868774
-0.000643738
-0.00095605
-0.000648199
-0.00104192
-0.000652097
-0.00112582
-0.000659934
-0.00121008
-0.000678731
-0.00130318
-0.00071249
-0.00142027
-0.000751387
-0.00157261
-0.000764503
-0.00174183
-0.000709874
-0.00185528
-0.000563441
-0.00179768
-0.000348708
-0.00147749
-0.000140608
-0.000922337
-2.2063e-05
-0.000335104
-1.16587e-07
-1.37853e-05
0.000429862
-5.77569e-05
0.00086028
-0.000112146
0.00109415
-0.000166068
0.00126779
-0.000214854
0.00140306
-0.000255886
0.00149002
-0.000287854
0.00152213
-0.00031093
0.00150244
-0.000326683
0.00144191
-0.000337545
0.00135551
-0.000346021
0.00125773
-0.000353977
0.00115908
-0.000362327
0.00106479
-0.000371168
0.000975699
-0.000380176
0.000890346
-0.000388985
0.000806869
-0.00039739
0.000723996
-0.000405374
0.000641208
-0.000413045
0.000558465
-0.000420547
0.000475895
-0.000428016
0.000393597
-0.000435557
0.000311594
-0.000443251
0.000229846
-0.000451164
0.000148277
-0.000459349
6.67701e-05
-0.000467847
-1.47747e-05
-0.000476674
-9.65236e-05
-0.000485836
-0.000178565
-0.000495333
-0.000261007
-0.000505154
-0.000343963
-0.00051528
-0.00042755
-0.000525682
-0.000511889
-0.000536297
-0.000597113
-0.000546999
-0.00068335
-0.000557524
-0.000770658
-0.000567391
-0.000858907
-0.000575862
-0.000947578
-0.000582175
-0.0010356
-0.000586356
-0.00112164
-0.000590801
-0.00120564
-0.000601605
-0.00129238
-0.000626404
-0.00139547
-0.000665025
-0.00153399
-0.000696558
-0.0017103
-0.000678888
-0.00187295
-0.000573345
-0.00190323
-0.000382373
-0.00166846
-0.000169281
-0.00113543
-2.93604e-05
-0.000475025
-2.9477e-05
-3.78831e-06
0.00043365
-3.55048e-05
0.000891997
-7.86363e-05
0.00113728
-0.000121994
0.00131115
-0.000161099
0.00144217
-0.000193934
0.00152286
-0.000219675
0.00154787
-0.000238671
0.00152143
-0.000252304
0.00145554
-0.000262518
0.00136572
-0.000271182
0.00126639
-0.000279572
0.00116747
-0.000288209
0.00107343
-0.000297047
0.000984537
-0.000305805
0.000899104
-0.000314239
0.000815304
-0.000322264
0.000732022
-0.000329936
0.00064888
-0.000337383
0.000565913
-0.000344747
0.000483259
-0.000352144
0.000400995
-0.000359668
0.000319118
-0.000367388
0.000237567
-0.00037537
0.00015626
-0.000383676
7.50762e-05
-0.000392352
-6.09817e-06
-0.000401414
-8.74605e-05
-0.000410868
-0.000169111
-0.000420704
-0.000251172
-0.000430905
-0.000333762
-0.000441449
-0.000417005
-0.00045231
-0.000501027
-0.000463447
-0.000585977
-0.000474781
-0.000672015
-0.000486152
-0.000759287
-0.000497232
-0.000847828
-0.000507432
-0.000937377
-0.000515904
-0.00102713
-0.00052192
-0.00111563
-0.000526087
-0.00120147
-0.000532348
-0.00128612
-0.000548641
-0.00137917
-0.00058126
-0.00150137
-0.000620586
-0.00167097
-0.000630567
-0.00186297
-0.000563945
-0.00196985
-0.000403094
-0.00182931
-0.000194595
-0.00134393
-3.77566e-05
-0.000631863
-6.72335e-05
6.1225e-06
0.000427528
-1.2529e-05
0.000910648
-4.40454e-05
0.0011688
-7.68447e-05
0.00134395
-0.000106591
0.00147192
-0.000131762
0.00154803
-0.000151907
0.00156802
-0.000167407
0.00153693
-0.000179324
0.00146746
-0.000189036
0.00137544
-0.000197782
0.00127514
-0.000206335
0.00117603
-0.000214943
0.00108204
-0.000223509
0.000993103
-0.000231835
0.00090743
-0.000239797
0.000823266
-0.000247397
0.000739622
-0.000254731
0.000656215
-0.000261931
0.000573113
-0.000269121
0.000490449
-0.000276405
0.00040828
-0.000283865
0.000326579
-0.000291568
0.000245271
-0.000299578
0.000164271
-0.00030797
8.34689e-05
-0.0003168
2.73175e-06
-0.000326093
-7.81668e-05
-0.000335851
-0.000159352
-0.000346055
-0.000240967
-0.000356683
-0.000323134
-0.000367709
-0.000405978
-0.000379104
-0.000489632
-0.000390833
-0.000574248
-0.00040284
-0.000660007
-0.000415021
-0.000747106
-0.000427157
-0.000835691
-0.000438827
-0.000925708
-0.000449311
-0.00101665
-0.000457676
-0.00110726
-0.000463456
-0.00119569
-0.000468439
-0.00128114
-0.000478846
-0.00136877
-0.000503716
-0.0014765
-0.000543179
-0.00163151
-0.000571272
-0.00183488
-0.000538642
-0.00200248
-0.000410764
-0.00195719
-0.000214793
-0.0015399
-4.68314e-05
-0.000799825
-0.000114065
1.53414e-05