/*--------------------------------*- C++ -*----------------------------------*\
  =========                 |
  \\      /  F ield         | OpenFOAM: The Open Source CFD Toolbox
   \\    /   O peration     | Website:  https://openfoam.org
    \\  /    A nd           | Version:  7
     \\/     M anipulation  |
\*---------------------------------------------------------------------------*/
FoamFile
{
    version     2.0;
    format      ascii;
    class       volVectorField;
    location    "450";
    object      U;
}
// * * * * * * * * * * * * * * * * * * * * * * * * * * * * * * * * * * * * * //

dimensions      [0 1 -1 0 0 0 0];

internalField   nonuniform List<vector> 
2500
(
(0.000208134 -0.000201445 0)
(0.00186847 -0.000571578 0)
(0.00447747 -0.000698269 0)
(0.00716658 -0.000600426 0)
(0.00923218 -0.000419234 0)
(0.0104527 -0.000264593 0)
(0.0109316 -0.000188353 0)
(0.0108815 -0.000186309 0)
(0.0104497 -0.000220314 0)
(0.00963099 -0.000245798 0)
(0.00827585 -0.000228874 0)
(0.00615152 -0.000150697 0)
(0.00300036 -2.21202e-06 0)
(-0.00142169 0.000221963 0)
(-0.00731961 0.00052499 0)
(-0.0148262 0.000910474 0)
(-0.0239641 0.0013785 0)
(-0.0346035 0.00191749 0)
(-0.0464264 0.00249425 0)
(-0.0589068 0.00304644 0)
(-0.0713157 0.00348414 0)
(-0.0827592 0.00370259 0)
(-0.0922474 0.00360312 0)
(-0.0987966 0.00312028 0)
(-0.10154 0.002248 0)
(-0.0998024 0.00104411 0)
(-0.0933125 -0.00036079 0)
(-0.0821422 -0.00180088 0)
(-0.066757 -0.00310246 0)
(-0.0480117 -0.0040984 0)
(-0.0271235 -0.00464371 0)
(-0.00557566 -0.00461612 0)
(0.0151047 -0.00395137 0)
(0.0334464 -0.00280208 0)
(0.048141 -0.00138967 0)
(0.058228 0.000107825 0)
(0.0633224 0.00148125 0)
(0.0636334 0.00252224 0)
(0.059963 0.00310425 0)
(0.0534761 0.0032211 0)
(0.0454049 0.00298548 0)
(0.0368546 0.00255026 0)
(0.028664 0.0020501 0)
(0.0213552 0.00157592 0)
(0.0151597 0.00117567 0)
(0.0100896 0.000864626 0)
(0.00603601 0.000632216 0)
(0.00290549 0.000436824 0)
(0.000797377 0.000193443 0)
(-8.16591e-05 -8.70427e-05 0)
(0.000567129 -0.00182 0)
(0.00437814 -0.00431891 0)
(0.00958623 -0.00511867 0)
(0.014607 -0.00444114 0)
(0.0181619 -0.00299762 0)
(0.0197648 -0.00145642 0)
(0.0194544 -0.000190657 0)
(0.0174415 0.000768177 0)
(0.0138106 0.00162932 0)
(0.00837151 0.00267171 0)
(0.000686319 0.00411258 0)
(-0.00980213 0.00605778 0)
(-0.0236235 0.0085114 0)
(-0.0411403 0.0114063 0)
(-0.0624325 0.014604 0)
(-0.0871917 0.0178785 0)
(-0.114658 0.0209089 0)
(-0.143636 0.0233024 0)
(-0.172601 0.0246501 0)
(-0.199871 0.0245945 0)
(-0.223789 0.0228886 0)
(-0.242875 0.0194327 0)
(-0.255929 0.0142908 0)
(-0.262094 0.00769502 0)
(-0.260895 3.49977e-05 0)
(-0.252265 -0.00817366 0)
(-0.236398 -0.0163601 0)
(-0.21374 -0.0239708 0)
(-0.185058 -0.0304427 0)
(-0.151436 -0.0352416 0)
(-0.114285 -0.0379044 0)
(-0.0753 -0.0380869 0)
(-0.0363915 -0.0356417 0)
(0.000504166 -0.0307498 0)
(0.0335412 -0.0239081 0)
(0.0610407 -0.0158426 0)
(0.0816836 -0.00737467 0)
(0.0947432 0.000613326 0)
(0.100084 0.00727709 0)
(0.098312 0.0120322 0)
(0.0908801 0.0146783 0)
(0.0795736 0.0154152 0)
(0.066219 0.0147065 0)
(0.0524161 0.0131057 0)
(0.0393455 0.0111191 0)
(0.0277042 0.00911413 0)
(0.0177825 0.00725319 0)
(0.00968862 0.00543899 0)
(0.00372949 0.00334696 0)
(0.000329874 0.000920509 0)
(0.000786506 -0.00449877 0)
(0.00569082 -0.00969929 0)
(0.0117192 -0.0109191 0)
(0.016904 -0.00900409 0)
(0.0197549 -0.00541918 0)
(0.0196953 -0.00146247 0)
(0.0166425 0.00216238 0)
(0.0105936 0.00543654 0)
(0.00132171 0.00880003 0)
(-0.0117066 0.0128196 0)
(-0.0292053 0.0178808 0)
(-0.0518021 0.0240604 0)
(-0.0798014 0.0311459 0)
(-0.112971 0.0386726 0)
(-0.150435 0.0459591 0)
(-0.190712 0.0521855 0)
(-0.231912 0.0565277 0)
(-0.271998 0.0582999 0)
(-0.309045 0.0570563 0)
(-0.341427 0.0526317 0)
(-0.36791 0.0451262 0)
(-0.38765 0.0348556 0)
(-0.400135 0.0222926 0)
(-0.405108 0.0080172 0)
(-0.402495 -0.00732092 0)
(-0.392273 -0.0230401 0)
(-0.374478 -0.0384303 0)
(-0.349379 -0.0527042 0)
(-0.317459 -0.0650269 0)
(-0.279483 -0.0745585 0)
(-0.23654 -0.0805249 0)
(-0.190064 -0.0823152 0)
(-0.141812 -0.0795959 0)
(-0.0937894 -0.0724198 0)
(-0.048108 -0.0613312 0)
(-0.00676488 -0.0473348 0)
(0.0285162 -0.0317207 0)
(0.0563735 -0.0159388 0)
(0.0761113 -0.00127963 0)
(0.0874592 0.0110595 0)
(0.0906722 0.0201683 0)
(0.0870013 0.0256798 0)
(0.0781502 0.0278234 0)
(0.0660085 0.0272868 0)
(0.052377 0.0249687 0)
(0.0387186 0.0217248 0)
(0.0260356 0.0181264 0)
(0.0149706 0.0142453 0)
(0.00625827 0.00958911 0)
(0.0007056 0.00359032 0)
(0.000918244 -0.00773133 0)
(0.00606827 -0.0155963 0)
(0.0115415 -0.0165364 0)
(0.0151508 -0.0124436 0)
(0.0153935 -0.00571951 0)
(0.0117108 0.00171918 0)
(0.00387733 0.00896839 0)
(-0.00845744 0.0161386 0)
(-0.0259604 0.0239936 0)
(-0.0494477 0.0332841 0)
(-0.0795558 0.0442883 0)
(-0.116379 0.0566632 0)
(-0.159246 0.0695303 0)
(-0.206697 0.0816649 0)
(-0.256689 0.0917369 0)
(-0.306935 0.0985608 0)
(-0.355262 0.10129 0)
(-0.399863 0.0995044 0)
(-0.439406 0.0931927 0)
(-0.473018 0.0826582 0)
(-0.50018 0.0684025 0)
(-0.520595 0.051024 0)
(-0.534073 0.0311512 0)
(-0.540452 0.00941949 0)
(-0.539575 -0.0135108 0)
(-0.531257 -0.0369113 0)
(-0.515368 -0.0599375 0)
(-0.491881 -0.0816258 0)
(-0.460901 -0.10091 0)
(-0.422743 -0.11665 0)
(-0.378026 -0.127708 0)
(-0.327759 -0.133082 0)
(-0.273412 -0.132074 0)
(-0.216918 -0.124476 0)
(-0.160589 -0.110716 0)
(-0.106909 -0.0919027 0)
(-0.0582286 -0.0697339 0)
(-0.0164218 -0.046214 0)
(0.0173147 -0.023259 0)
(0.0423863 -0.00261532 0)
(0.0587343 0.0144788 0)
(0.0666136 0.027098 0)
(0.0671336 0.0348645 0)
(0.0618484 0.0381169 0)
(0.0525468 0.0377575 0)
(0.0410202 0.0349213 0)
(0.0288208 0.0305662 0)
(0.0171851 0.0250353 0)
(0.00741986 0.0177455 0)
(0.000862003 0.00736975 0)
(0.000999894 -0.0110219 0)
(0.00560685 -0.0208273 0)
(0.00921535 -0.0203385 0)
(0.00965056 -0.0128817 0)
(0.00557501 -0.00190616 0)
(-0.00353059 0.0101662 0)
(-0.0181326 0.0224372 0)
(-0.0389883 0.0353525 0)
(-0.0670316 0.0498517 0)
(-0.102912 0.066458 0)
(-0.146524 0.0847949 0)
(-0.196784 0.103628 0)
(-0.251749 0.121223 0)
(-0.308965 0.135785 0)
(-0.365926 0.14583 0)
(-0.420452 0.150409 0)
(-0.470903 0.149159 0)
(-0.516197 0.142209 0)
(-0.555712 0.130014 0)
(-0.589125 0.113199 0)
(-0.616285 0.0924336 0)
(-0.63711 0.0683792 0)
(-0.651536 0.0416706 0)
(-0.659487 0.0129329 0)
(-0.660862 -0.0171834 0)
(-0.655527 -0.0479527 0)
(-0.643266 -0.0785193 0)
(-0.623805 -0.107875 0)
(-0.596849 -0.134841 0)
(-0.562164 -0.158062 0)
(-0.519696 -0.176065 0)
(-0.469736 -0.187379 0)
(-0.41309 -0.190748 0)
(-0.35123 -0.185394 0)
(-0.286356 -0.171293 0)
(-0.221303 -0.14937 0)
(-0.159237 -0.121513 0)
(-0.103164 -0.0903246 0)
(-0.0553759 -0.0586598 0)
(-0.0170688 -0.0290417 0)
(0.0116285 -0.00324988 0)
(0.0310985 0.0175112 0)
(0.0418919 0.0325702 0)
(0.0452115 0.0417708 0)
(0.0425761 0.045649 0)
(0.0357111 0.0452715 0)
(0.0263793 0.0417471 0)
(0.0162398 0.0355967 0)
(0.00710533 0.0261589 0)
(0.000795933 0.0113852 0)
(0.000995171 -0.0139239 0)
(0.0041524 -0.024285 0)
(0.00455631 -0.0208542 0)
(0.000351748 -0.00868782 0)
(-0.00953397 0.00771171 0)
(-0.0256643 0.0256653 0)
(-0.048784 0.0445741 0)
(-0.0798733 0.0651116 0)
(-0.119643 0.0879314 0)
(-0.167904 0.112715 0)
(-0.223303 0.138001 0)
(-0.283532 0.161633 0)
(-0.345817 0.18139 0)
(-0.407467 0.195496 0)
(-0.46626 0.202886 0)
(-0.520618 0.203218 0)
(-0.569573 0.196722 0)
(-0.612622 0.183979 0)
(-0.649577 0.165738 0)
(-0.680444 0.142779 0)
(-0.705351 0.115858 0)
(-0.7245 0.0856748 0)
(-0.738115 0.052877 0)
(-0.746391 0.0180688 0)
(-0.749436 -0.0181614 0)
(-0.747253 -0.0552008 0)
(-0.739643 -0.0923443 0)
(-0.726171 -0.128715 0)
(-0.706218 -0.163209 0)
(-0.679017 -0.194442 0)
(-0.643769 -0.220745 0)
(-0.599825 -0.240248 0)
(-0.546935 -0.251062 0)
(-0.48554 -0.251581 0)
(-0.41705 -0.240875 0)
(-0.343993 -0.219093 0)
(-0.269939 -0.187741 0)
(-0.199076 -0.14967 0)
(-0.135459 -0.108649 0)
(-0.0820976 -0.06856 0)
(-0.0402907 -0.0325295 0)
(-0.00966823 -0.00242817 0)
(0.0109364 0.0210083 0)
(0.0227147 0.0374988 0)
(0.0270941 0.0472575 0)
(0.025738 0.0510645 0)
(0.0204361 0.0499125 0)
(0.0130617 0.0443063 0)
(0.00574234 0.0334718 0)
(0.000590186 0.014893 0)
(0.000838265 -0.015859 0)
(0.00146814 -0.0247454 0)
(-0.00263215 -0.0166501 0)
(-0.012747 0.0015121 0)
(-0.0296606 0.0244842 0)
(-0.0540485 0.0496724 0)
(-0.0868104 0.0767692 0)
(-0.128702 0.106235 0)
(-0.179591 0.137817 0)
(-0.23804 0.16996 0)
(-0.301516 0.200181 0)
(-0.36698 0.225845 0)
(-0.43152 0.244839 0)
(-0.492774 0.255908 0)
(-0.549091 0.258666 0)
(-0.599482 0.2534 0)
(-0.643476 0.240819 0)
(-0.680981 0.221838 0)
(-0.712181 0.197432 0)
(-0.737467 0.168547 0)
(-0.757369 0.13605 0)
(-0.772482 0.100695 0)
(-0.783381 0.0631096 0)
(-0.790546 0.0238116 0)
(-0.794306 -0.0167589 0)
(-0.794811 -0.058198 0)
(-0.791969 -0.100072 0)
(-0.785333 -0.141791 0)
(-0.774154 -0.182519 0)
(-0.757351 -0.221075 0)
(-0.733566 -0.255856 0)
(-0.701291 -0.284833 0)
(-0.659106 -0.305646 0)
(-0.606041 -0.315847 0)
(-0.542013 -0.31332 0)
(-0.468282 -0.296838 0)
(-0.38774 -0.266645 0)
(-0.304874 -0.224877 0)
(-0.225216 -0.175546 0)
(-0.154239 -0.123886 0)
(-0.0959502 -0.0750942 0)
(-0.0518227 -0.0329732 0)
(-0.02085 0.000714496 0)
(-0.000826459 0.0258276 0)
(0.0102452 0.0426991 0)
(0.0142678 0.0519498 0)
(0.0131767 0.0543753 0)
(0.00899527 0.0503283 0)
(0.00399322 0.0389126 0)
(0.000361432 0.017487 0)
(0.000462204 -0.0160817 0)
(-0.00259551 -0.0209288 0)
(-0.0123316 -0.00654932 0)
(-0.0293074 0.0187471 0)
(-0.0540529 0.0493807 0)
(-0.0873197 0.0830097 0)
(-0.129829 0.119279 0)
(-0.181581 0.157837 0)
(-0.241245 0.197122 0)
(-0.306224 0.234418 0)
(-0.373278 0.266676 0)
(-0.439239 0.29136 0)
(-0.501505 0.306914 0)
(-0.558241 0.31281 0)
(-0.60834 0.309347 0)
(-0.6513 0.297361 0)
(-0.687104 0.277986 0)
(-0.716115 0.252466 0)
(-0.738987 0.222034 0)
(-0.756568 0.187816 0)
(-0.769784 0.150764 0)
(-0.779542 0.111619 0)
(-0.786638 0.070914 0)
(-0.791712 0.0290113 0)
(-0.795226 -0.0138507 0)
(-0.797443 -0.0575106 0)
(-0.798402 -0.101835 0)
(-0.797799 -0.146587 0)
(-0.795008 -0.191318 0)
(-0.788986 -0.235245 0)
(-0.77823 -0.277122 0)
(-0.76079 -0.315127 0)
(-0.734397 -0.346819 0)
(-0.696752 -0.369236 0)
(-0.646006 -0.379204 0)
(-0.581404 -0.373887 0)
(-0.503951 -0.351564 0)
(-0.416919 -0.312472 0)
(-0.325873 -0.259431 0)
(-0.237965 -0.197862 0)
(-0.160394 -0.134842 0)
(-0.0983494 -0.0772191 0)
(-0.0534064 -0.029552 0)
(-0.023652 0.00673053 0)
(-0.00561758 0.032342 0)
(0.00357227 0.0482144 0)
(0.00642956 0.0551916 0)
(0.0052728 0.0535491 0)
(0.00248082 0.0423523 0)
(0.000208657 0.0191474 0)
(-0.000176026 -0.0137579 0)
(-0.00799246 -0.0117627 0)
(-0.0241746 0.0102959 0)
(-0.0485174 0.0436196 0)
(-0.0813378 0.0827754 0)
(-0.12327 0.125545 0)
(-0.174445 0.170994 0)
(-0.233783 0.217516 0)
(-0.298809 0.262253 0)
(-0.366185 0.30175 0)
(-0.432489 0.33295 0)
(-0.494819 0.353846 0)
(-0.551067 0.363644 0)
(-0.599939 0.362575 0)
(-0.640863 0.35159 0)
(-0.673875 0.33207 0)
(-0.699511 0.305591 0)
(-0.718678 0.273742 0)
(-0.732508 0.237978 0)
(-0.742199 0.199512 0)
(-0.74889 0.159264 0)
(-0.753569 0.117859 0)
(-0.757034 0.0756654 0)
(-0.759891 0.0328533 0)
(-0.762589 -0.0105377 0)
(-0.765431 -0.054552 0)
(-0.768542 -0.0992853 0)
(-0.771842 -0.144796 0)
(-0.775014 -0.191013 0)
(-0.777375 -0.237628 0)
(-0.777752 -0.283946 0)
(-0.774355 -0.328701 0)
(-0.76473 -0.369869 0)
(-0.745854 -0.404566 0)
(-0.714475 -0.429114 0)
(-0.667733 -0.43941 0)
(-0.604044 -0.431652 0)
(-0.524075 -0.403412 0)
(-0.431502 -0.354833 0)
(-0.333139 -0.289558 0)
(-0.238025 -0.214789 0)
(-0.155302 -0.139933 0)
(-0.0913305 -0.0738176 0)
(-0.0474703 -0.0216916 0)
(-0.0204812 0.0156823 0)
(-0.00551011 0.0400214 0)
(0.00117957 0.05271 0)
(0.00265978 0.0543377 0)
(0.00160054 0.0441695 0)
(0.000183597 0.0201551 0)
(-0.0010777 -0.00812074 0)
(-0.0144452 0.0034992 0)
(-0.0374213 0.0342614 0)
(-0.0691191 0.0761824 0)
(-0.109592 0.124286 0)
(-0.159089 0.17611 0)
(-0.21686 0.229672 0)
(-0.280737 0.282005 0)
(-0.347442 0.329293 0)
(-0.413362 0.36787 0)
(-0.475272 0.395112 0)
(-0.530735 0.409783 0)
(-0.578212 0.411928 0)
(-0.617011 0.402554 0)
(-0.647197 0.38329 0)
(-0.669458 0.356085 0)
(-0.684945 0.32294 0)
(-0.695056 0.285693 0)
(-0.701227 0.245863 0)
(-0.70476 0.204576 0)
(-0.706733 0.162573 0)
(-0.707972 0.120263 0)
(-0.709065 0.0778104 0)
(-0.710416 0.0352092 0)
(-0.712331 -0.00764709 0)
(-0.715061 -0.0509201 0)
(-0.718745 -0.0948068 0)
(-0.723495 -0.139514 0)
(-0.729328 -0.185214 0)
(-0.736056 -0.231988 0)
(-0.743134 -0.2797 0)
(-0.749447 -0.327814 0)
(-0.753096 -0.375123 0)
(-0.751242 -0.419457 0)
(-0.740149 -0.457463 0)
(-0.71555 -0.484618 0)
(-0.673445 -0.495652 0)
(-0.611292 -0.485514 0)
(-0.529369 -0.450858 0)
(-0.431862 -0.391738 0)
(-0.327082 -0.312936 0)
(-0.226243 -0.224029 0)
(-0.140532 -0.137371 0)
(-0.0771768 -0.0639913 0)
(-0.0366401 -0.00944725 0)
(-0.0138167 0.0266982 0)
(-0.00264946 0.0470681 0)
(0.00129113 0.0531915 0)
(0.00144245 0.0449804 0)
(0.000288006 0.0209304 0)
(-0.00218501 0.00137472 0)
(-0.0214537 0.0251417 0)
(-0.0510682 0.0652052 0)
(-0.0895607 0.115899 0)
(-0.136614 0.172773 0)
(-0.191863 0.232713 0)
(-0.253604 0.292455 0)
(-0.318823 0.34787 0)
(-0.38385 0.394654 0)
(-0.445171 0.429393 0)
(-0.499987 0.450191 0)
(-0.546447 0.456717 0)
(-0.583679 0.449917 0)
(-0.611716 0.431626 0)
(-0.631361 0.404176 0)
(-0.643979 0.370027 0)
(-0.651223 0.331462 0)
(-0.654753 0.290351 0)
(-0.656022 0.248052 0)
(-0.656158 0.205419 0)
(-0.655949 0.162895 0)
(-0.655889 0.120628 0)
(-0.656257 0.0785882 0)
(-0.657192 0.036645 0)
(-0.658804 -0.0053737 0)
(-0.661239 -0.0476481 0)
(-0.664599 -0.0903595 0)
(-0.66907 -0.133709 0)
(-0.674872 -0.177933 0)
(-0.682205 -0.223291 0)
(-0.691134 -0.270027 0)
(-0.701393 -0.318235 0)
(-0.712098 -0.36763 0)
(-0.721406 -0.417169 0)
(-0.72622 -0.464605 0)
(-0.722129 -0.506086 0)
(-0.703791 -0.536069 0)
(-0.665947 -0.547823 0)
(-0.605007 -0.534733 0)
(-0.520908 -0.492368 0)
(-0.4186 -0.420879 0)
(-0.308297 -0.326811 0)
(-0.203716 -0.223034 0)
(-0.118007 -0.125563 0)
(-0.0584981 -0.0475245 0)
(-0.0236785 0.00612297 0)
(-0.00621233 0.0376681 0)
(0.000667027 0.0503219 0)
(0.00180531 0.0453102 0)
(0.000485509 0.0218558 0)
(-0.00336216 0.0149592 0)
(-0.0283704 0.0529596 0)
(-0.063995 0.102498 0)
(-0.108234 0.161679 0)
(-0.160287 0.226511 0)
(-0.219076 0.292926 0)
(-0.282072 0.356404 0)
(-0.345755 0.412022 0)
(-0.406427 0.45545 0)
(-0.460925 0.483877 0)
(-0.507031 0.496331 0)
(-0.543597 0.493494 0)
(-0.570532 0.477288 0)
(-0.588672 0.450396 0)
(-0.599539 0.415773 0)
(-0.605013 0.37621 0)
(-0.606975 0.334003 0)
(-0.607033 0.29079 0)
(-0.60637 0.247562 0)
(-0.605737 0.20478 0)
(-0.605523 0.162554 0)
(-0.605871 0.120797 0)
(-0.60678 0.0793425 0)
(-0.608185 0.0380088 0)
(-0.610042 -0.00337056 0)
(-0.6124 -0.0449285 0)
(-0.615311 -0.0867719 0)
(-0.618922 -0.129012 0)
(-0.623479 -0.171811 0)
(-0.629322 -0.215406 0)
(-0.636847 -0.260138 0)
(-0.646405 -0.306426 0)
(-0.658088 -0.354652 0)
(-0.671364 -0.404875 0)
(-0.684588 -0.456326 0)
(-0.694512 -0.506732 0)
(-0.696068 -0.551673 0)
(-0.682764 -0.584337 0)
(-0.647969 -0.596152 0)
(-0.587032 -0.578595 0)
(-0.499777 -0.526113 0)
(-0.392409 -0.439463 0)
(-0.277657 -0.328061 0)
(-0.172075 -0.209371 0)
(-0.09031 -0.103698 0)
(-0.0383516 -0.0253974 0)
(-0.0113615 0.0228057 0)
(-0.000169237 0.0452888 0)
(0.00229089 0.0453021 0)
(0.000719967 0.0231355 0)
(-0.00444535 0.0324773 0)
(-0.0345433 0.0862846 0)
(-0.0751457 0.14508 0)
(-0.123712 0.212016 0)
(-0.178901 0.28346 0)
(-0.238953 0.354274 0)
(-0.300757 0.418893 0)
(-0.360623 0.472017 0)
(-0.415093 0.509679 0)
(-0.461534 0.529932 0)
(-0.498426 0.532881 0)
(-0.525423 0.520313 0)
(-0.543265 0.495153 0)
(-0.553536 0.460843 0)
(-0.558285 0.420754 0)
(-0.559601 0.377704 0)
(-0.55926 0.333704 0)
(-0.558527 0.289937 0)
(-0.558144 0.246909 0)
(-0.558421 0.204682 0)
(-0.559388 0.163093 0)
(-0.560937 0.121908 0)
(-0.562908 0.0809087 0)
(-0.565149 0.0399255 0)
(-0.567557 -0.00116046 0)
(-0.570131 -0.0424176 0)
(-0.572894 -0.0838785 0)
(-0.575906 -0.125564 0)
(-0.579327 -0.167523 0)
(-0.583424 -0.209865 0)
(-0.588597 -0.25282 0)
(-0.595388 -0.296792 0)
(-0.604412 -0.342383 0)
(-0.616144 -0.390301 0)
(-0.630481 -0.441031 0)
(-0.646074 -0.494166 0)
(-0.659585 -0.547426 0)
(-0.665258 -0.595659 0)
(-0.655328 -0.630406 0)
(-0.621699 -0.640759 0)
(-0.558789 -0.615961 0)
(-0.466801 -0.549567 0)
(-0.354029 -0.444014 0)
(-0.23653 -0.313369 0)
(-0.133851 -0.181335 0)
(-0.0609173 -0.0725334 0)
(-0.0200789 -0.000307431 0)
(-0.00228566 0.0368563 0)
(0.00246137 0.04457 0)
(0.000938828 0.0247296 0)
(-0.0052864 0.0533643 0)
(-0.0394124 0.124055 0)
(-0.0836644 0.191575 0)
(-0.134933 0.265172 0)
(-0.19134 0.341544 0)
(-0.250578 0.414533 0)
(-0.309231 0.477843 0)
(-0.363706 0.526185 0)
(-0.410979 0.556272 0)
(-0.449068 0.567211 0)
(-0.47723 0.560303 0)
(-0.495945 0.538484 0)
(-0.506712 0.505597 0)
(-0.511657 0.465629 0)
(-0.513043 0.422041 0)
(-0.512828 0.377354 0)
(-0.512401 0.333053 0)
(-0.512536 0.289749 0)
(-0.513505 0.247483 0)
(-0.51526 0.20601 0)
(-0.517611 0.165017 0)
(-0.520343 0.12423 0)
(-0.523273 0.083456 0)
(-0.526263 0.0425748 0)
(-0.529225 0.00152323 0)
(-0.532163 -0.0397192 0)
(-0.535095 -0.0811406 0)
(-0.538015 -0.122718 0)
(-0.540978 -0.164421 0)
(-0.5441 -0.206244 0)
(-0.547603 -0.248244 0)
(-0.551882 -0.290623 0)
(-0.55756 -0.333828 0)
(-0.56547 -0.378639 0)
(-0.576464 -0.426118 0)
(-0.590907 -0.477247 0)
(-0.60779 -0.53204 0)
(-0.623669 -0.588147 0)
(-0.631961 -0.639364 0)
(-0.623443 -0.675003 0)
(-0.588508 -0.681191 0)
(-0.52101 -0.64474 0)
(-0.422435 -0.559087 0)
(-0.304389 -0.430322 0)
(-0.187159 -0.279787 0)
(-0.0928051 -0.139007 0)
(-0.0339724 -0.0352805 0)
(-0.00652007 0.0230818 0)
(0.00200216 0.0422447 0)
(0.00111472 0.0263875 0)
(-0.00576442 0.0767123 0)
(-0.0425669 0.164937 0)
(-0.0889803 0.240437 0)
(-0.141287 0.319375 0)
(-0.19713 0.398867 0)
(-0.253844 0.471909 0)
(-0.307953 0.531813 0)
(-0.356167 0.573638 0)
(-0.396018 0.595011 0)
(-0.426239 0.596245 0)
(-0.446874 0.579894 0)
(-0.45915 0.549979 0)
(-0.465126 0.511064 0)
(-0.467169 0.467357 0)
(-0.467425 0.422066 0)
(-0.467455 0.37715 0)
(-0.468128 0.333448 0)
(-0.469728 0.291031 0)
(-0.472167 0.24959 0)
(-0.475198 0.208722 0)
(-0.478562 0.16809 0)
(-0.482062 0.127467 0)
(-0.485574 0.0867251 0)
(-0.489023 0.0458023 0)
(-0.492372 0.00467689 0)
(-0.495653 -0.036649 0)
(-0.498894 -0.0781533 0)
(-0.502064 -0.119811 0)
(-0.505155 -0.161575 0)
(-0.508164 -0.203382 0)
(-0.511129 -0.245177 0)
(-0.514191 -0.286957 0)
(-0.517688 -0.328881 0)
(-0.52227 -0.371416 0)
(-0.528949 -0.415517 0)
(-0.538942 -0.462637 0)
(-0.553087 -0.514323 0)
(-0.570696 -0.57103 0)
(-0.588071 -0.63013 0)
(-0.597526 -0.683794 0)
(-0.588107 -0.718222 0)
(-0.548793 -0.715859 0)
(-0.473644 -0.661285 0)
(-0.366893 -0.549592 0)
(-0.245065 -0.393836 0)
(-0.133231 -0.226028 0)
(-0.0540211 -0.0858836 0)
(-0.0133614 0.00155371 0)
(0.000762281 0.0371475 0)
(0.00125156 0.0277509 0)
(-0.00580438 0.101387 0)
(-0.0437763 0.207449 0)
(-0.090833 0.29009 0)
(-0.142608 0.372979 0)
(-0.196371 0.453851 0)
(-0.249285 0.52511 0)
(-0.298019 0.579991 0)
(-0.339715 0.614173 0)
(-0.372526 0.62637 0)
(-0.395902 0.618181 0)
(-0.410594 0.593388 0)
(-0.418399 0.556931 0)
(-0.421663 0.513795 0)
(-0.422685 0.468063 0)
(-0.423245 0.422404 0)
(-0.424381 0.37808 0)
(-0.426459 0.335304 0)
(-0.429398 0.293739 0)
(-0.432917 0.25289 0)
(-0.436723 0.212339 0)
(-0.4406 0.171813 0)
(-0.444432 0.131171 0)
(-0.448176 0.0903562 0)
(-0.451823 0.0493508 0)
(-0.455376 0.00815331 0)
(-0.458898 -0.0332324 0)
(-0.462428 -0.074794 0)
(-0.465939 -0.116527 0)
(-0.469404 -0.158403 0)
(-0.472774 -0.200364 0)
(-0.475987 -0.242327 0)
(-0.478996 -0.284188 0)
(-0.481843 -0.325878 0)
(-0.484785 -0.367494 0)
(-0.48847 -0.409518 0)
(-0.494068 -0.453093 0)
(-0.503159 -0.500137 0)
(-0.517045 -0.552842 0)
(-0.535239 -0.612049 0)
(-0.553477 -0.674399 0)
(-0.562491 -0.729443 0)
(-0.549308 -0.759037 0)
(-0.501905 -0.741332 0)
(-0.415987 -0.659796 0)
(-0.300679 -0.514677 0)
(-0.179109 -0.331027 0)
(-0.080445 -0.154823 0)
(-0.023155 -0.0305196 0)
(-0.00129119 0.0279498 0)
(0.00136873 0.0284433 0)
(-0.00538364 0.126145 0)
(-0.0429864 0.250084 0)
(-0.0892445 0.339044 0)
(-0.139111 0.424563 0)
(-0.189598 0.505293 0)
(-0.237869 0.573331 0)
(-0.28088 0.622108 0)
(-0.316278 0.648119 0)
(-0.34284 0.651276 0)
(-0.360662 0.634469 0)
(-0.371053 0.602585 0)
(-0.376142 0.561236 0)
(-0.378285 0.515496 0)
(-0.379478 0.469023 0)
(-0.381009 0.423785 0)
(-0.383413 0.380344 0)
(-0.386676 0.338419 0)
(-0.390519 0.297433 0)
(-0.394621 0.256863 0)
(-0.398745 0.216362 0)
(-0.402765 0.175763 0)
(-0.406653 0.135009 0)
(-0.410434 0.094095 0)
(-0.414136 0.0530264 0)
(-0.417785 0.0118033 0)
(-0.421454 -0.0295802 0)
(-0.425193 -0.0711266 0)
(-0.428986 -0.112855 0)
(-0.432812 -0.154765 0)
(-0.436626 -0.196834 0)
(-0.440349 -0.239005 0)
(-0.443865 -0.281173 0)
(-0.447051 -0.323187 0)
(-0.44985 -0.364907 0)
(-0.452434 -0.406359 0)
(-0.455447 -0.448048 0)
(-0.460233 -0.49137 0)
(-0.468757 -0.538831 0)
(-0.482743 -0.593371 0)
(-0.501661 -0.655999 0)
(-0.52011 -0.721739 0)
(-0.526574 -0.775924 0)
(-0.50592 -0.794525 0)
(-0.446213 -0.751423 0)
(-0.347208 -0.632005 0)
(-0.225652 -0.447809 0)
(-0.112193 -0.2424 0)
(-0.0363738 -0.0761229 0)
(-0.00423173 0.0131549 0)
(0.00145768 0.0280561 0)
(-0.00452735 0.14975 0)
(-0.0402912 0.291407 0)
(-0.0844594 0.385982 0)
(-0.13128 0.472985 0)
(-0.177624 0.552363 0)
(-0.220788 0.61619 0)
(-0.258103 0.658306 0)
(-0.28774 0.676154 0)
(-0.309047 0.670877 0)
(-0.322641 0.646582 0)
(-0.330191 0.609069 0)
(-0.333916 0.564331 0)
(-0.335962 0.517238 0)
(-0.337895 0.470827 0)
(-0.340513 0.426327 0)
(-0.343958 0.383705 0)
(-0.347998 0.342361 0)
(-0.352301 0.301638 0)
(-0.356601 0.261082 0)
(-0.360758 0.220463 0)
(-0.364739 0.17971 0)
(-0.368579 0.138828 0)
(-0.372337 0.0978363 0)
(-0.376059 0.0567451 0)
(-0.379769 0.0155447 0)
(-0.383537 -0.025784 0)
(-0.387419 -0.0672559 0)
(-0.391409 -0.108908 0)
(-0.395491 -0.150762 0)
(-0.399644 -0.192829 0)
(-0.403811 -0.235096 0)
(-0.40789 -0.277506 0)
(-0.411727 -0.319934 0)
(-0.415131 -0.36218 0)
(-0.417955 -0.404023 0)
(-0.4203 -0.445422 0)
(-0.422832 -0.486947 0)
(-0.427126 -0.530383 0)
(-0.435587 -0.579032 0)
(-0.450266 -0.636658 0)
(-0.47011 -0.703884 0)
(-0.487695 -0.772474 0)
(-0.488491 -0.821178 0)
(-0.455626 -0.818652 0)
(-0.379531 -0.736317 0)
(-0.267555 -0.567904 0)
(-0.146706 -0.345673 0)
(-0.0533309 -0.137461 0)
(-0.00822392 -0.00886485 0)
(0.00147049 0.0261345 0)
(-0.00329854 0.17106 0)
(-0.0358941 0.330124 0)
(-0.0768721 0.429796 0)
(-0.119764 0.517391 0)
(-0.161394 0.594563 0)
(-0.199285 0.653633 0)
(-0.231188 0.689004 0)
(-0.255767 0.699127 0)
(-0.272842 0.686336 0)
(-0.283397 0.65582 0)
(-0.289253 0.614059 0)
(-0.292519 0.56715 0)
(-0.294994 0.519545 0)
(-0.297794 0.473581 0)
(-0.301312 0.429816 0)
(-0.305442 0.387782 0)
(-0.309872 0.346718 0)
(-0.314311 0.306005 0)
(-0.318589 0.265303 0)
(-0.32266 0.224495 0)
(-0.326554 0.183583 0)
(-0.33034 0.142601 0)
(-0.334089 0.101573 0)
(-0.337844 0.0604992 0)
(-0.34162 0.0193572 0)
(-0.345473 -0.0218845 0)
(-0.349468 -0.0632492 0)
(-0.3536 -0.104785 0)
(-0.357855 -0.146528 0)
(-0.362228 -0.18851 0)
(-0.36669 -0.230753 0)
(-0.37118 -0.273252 0)
(-0.375581 -0.31595 0)
(-0.379705 -0.358699 0)
(-0.383302 -0.40124 0)
(-0.386148 -0.443263 0)
(-0.388296 -0.484675 0)
(-0.390507 -0.526215 0)
(-0.394695 -0.570298 0)
(-0.403771 -0.621336 0)
(-0.419874 -0.683831 0)
(-0.440579 -0.75674 0)
(-0.455179 -0.825744 0)
(-0.445656 -0.859998 0)
(-0.395095 -0.8207 0)
(-0.300281 -0.682483 0)
(-0.180453 -0.458989 0)
(-0.0734795 -0.214885 0)
(-0.0135124 -0.0398872 0)
(0.00138556 0.0221991 0)
(-0.00178636 0.189099 0)
(-0.0300671 0.365121 0)
(-0.066957 0.469607 0)
(-0.105272 0.557187 0)
(-0.141865 0.631655 0)
(-0.17453 0.685829 0)
(-0.201446 0.714766 0)
(-0.221707 0.71791 0)
(-0.235487 0.698696 0)
(-0.243962 0.66321 0)
(-0.248929 0.618379 0)
(-0.252245 0.570189 0)
(-0.255316 0.522553 0)
(-0.258858 0.47713 0)
(-0.262983 0.433933 0)
(-0.267464 0.392221 0)
(-0.272003 0.351196 0)
(-0.276394 0.310337 0)
(-0.280559 0.269423 0)
(-0.28452 0.228428 0)
(-0.288341 0.18739 0)
(-0.292099 0.146353 0)
(-0.295863 0.105329 0)
(-0.29967 0.0643057 0)
(-0.303521 0.0232467 0)
(-0.307459 -0.0178894 0)
(-0.311556 -0.0591303 0)
(-0.315813 -0.100534 0)
(-0.320206 -0.142141 0)
(-0.324737 -0.183997 0)
(-0.329394 -0.226142 0)
(-0.334148 -0.268609 0)
(-0.338931 -0.311401 0)
(-0.343612 -0.354454 0)
(-0.347972 -0.397588 0)
(-0.351702 -0.440467 0)
(-0.354518 -0.482678 0)
(-0.356475 -0.524129 0)
(-0.358542 -0.565929 0)
(-0.363144 -0.611544 0)
(-0.373724 -0.666854 0)
(-0.391941 -0.736501 0)
(-0.412564 -0.815091 0)
(-0.420205 -0.87787 0)
(-0.394013 -0.881707 0)
(-0.320947 -0.784062 0)
(-0.20988 -0.575308 0)
(-0.095229 -0.306366 0)
(-0.0203193 -0.0815795 0)
(0.00124473 0.0157676 0)
(-9.50954e-05 0.203093 0)
(-0.0231172 0.395478 0)
(-0.0552123 0.504743 0)
(-0.0885065 0.591997 0)
(-0.119921 0.663598 0)
(-0.147541 0.71308 0)
(-0.169946 0.736189 0)
(-0.18658 0.733299 0)
(-0.197839 0.7088 0)
(-0.20494 0.669483 0)
(-0.209517 0.622515 0)
(-0.213101 0.573629 0)
(-0.216719 0.526175 0)
(-0.220777 0.481219 0)
(-0.225223 0.438377 0)
(-0.229801 0.396763 0)
(-0.234279 0.355623 0)
(-0.238536 0.314549 0)
(-0.242566 0.273424 0)
(-0.246428 0.232276 0)
(-0.250198 0.19116 0)
(-0.253948 0.150109 0)
(-0.257739 0.109123 0)
(-0.261602 0.068175 0)
(-0.26553 0.0272186 0)
(-0.269549 -0.0137966 0)
(-0.273748 -0.0549006 0)
(-0.278129 -0.0961603 0)
(-0.282657 -0.137621 0)
(-0.287335 -0.179334 0)
(-0.292156 -0.221349 0)
(-0.297105 -0.263718 0)
(-0.302149 -0.306482 0)
(-0.307211 -0.349649 0)
(-0.312145 -0.39314 0)
(-0.31669 -0.436719 0)
(-0.320482 -0.479941 0)
(-0.323193 -0.522292 0)
(-0.324969 -0.563799 0)
(-0.327179 -0.606338 0)
(-0.33297 -0.655061 0)
(-0.346143 -0.717498 0)
(-0.366653 -0.796515 0)
(-0.384385 -0.877345 0)
(-0.378537 -0.919326 0)
(-0.32862 -0.867535 0)
(-0.232243 -0.687637 0)
(-0.116433 -0.407929 0)
(-0.0286437 -0.135084 0)
(0.00111025 0.00633079 0)
(0.00166563 0.212487 0)
(-0.0153609 0.420466 0)
(-0.04212 0.534716 0)
(-0.0701096 0.621618 0)
(-0.0963324 0.69047 0)
(-0.119151 0.735736 0)
(-0.137503 0.753834 0)
(-0.151095 0.745957 0)
(-0.160426 0.717279 0)
(-0.166627 0.675108 0)
(-0.171076 0.626697 0)
(-0.174957 0.577462 0)
(-0.178971 0.53023 0)
(-0.183311 0.485596 0)
(-0.187846 0.442913 0)
(-0.192355 0.401245 0)
(-0.196678 0.359913 0)
(-0.200769 0.318617 0)
(-0.204665 0.277312 0)
(-0.20844 0.236056 0)
(-0.212169 0.194905 0)
(-0.215912 0.153875 0)
(-0.219723 0.112953 0)
(-0.223633 0.0721032 0)
(-0.227629 0.031269 0)
(-0.231721 -0.0096073 0)
(-0.236016 -0.0505565 0)
(-0.240529 -0.0916574 0)
(-0.245202 -0.132959 0)
(-0.250041 -0.174517 0)
(-0.255036 -0.216386 0)
(-0.260178 -0.258627 0)
(-0.265446 -0.301299 0)
(-0.2708 -0.344456 0)
(-0.276151 -0.3881 0)
(-0.281323 -0.432117 0)
(-0.286009 -0.476176 0)
(-0.289782 -0.519687 0)
(-0.29232 -0.56207 0)
(-0.29401 -0.603754 0)
(-0.296902 -0.648087 0)
(-0.305037 -0.702723 0)
(-0.321842 -0.776113 0)
(-0.343297 -0.864649 0)
(-0.352208 -0.936269 0)
(-0.324101 -0.930509 0)
(-0.246029 -0.790124 0)
(-0.135048 -0.514546 0)
(-0.0380975 -0.200177 0)
(0.00096079 -0.00657763 0)
(0.00339005 0.216975 0)
(-0.007107 0.439501 0)
(-0.0281282 0.559185 0)
(-0.0506436 0.645962 0)
(-0.0717377 0.712419 0)
(-0.0900068 0.754143 0)
(-0.104702 0.76818 0)
(-0.115711 0.756393 0)
(-0.123531 0.724564 0)
(-0.129115 0.680349 0)
(-0.133536 0.630988 0)
(-0.137645 0.58158 0)
(-0.141879 0.534517 0)
(-0.146297 0.490052 0)
(-0.150755 0.447379 0)
(-0.155088 0.405568 0)
(-0.159208 0.364024 0)
(-0.16312 0.322531 0)
(-0.166882 0.281091 0)
(-0.170569 0.239772 0)
(-0.174248 0.198622 0)
(-0.17797 0.157642 0)
(-0.181784 0.116807 0)
(-0.185723 0.0760749 0)
(-0.189774 0.0353861 0)
(-0.193923 -0.00532632 0)
(-0.198305 -0.0460965 0)
(-0.202956 -0.0870149 0)
(-0.207789 -0.128138 0)
(-0.212809 -0.169524 0)
(-0.218005 -0.211232 0)
(-0.223366 -0.253324 0)
(-0.228876 -0.295872 0)
(-0.234511 -0.338949 0)
(-0.240217 -0.382614 0)
(-0.245883 -0.426849 0)
(-0.251291 -0.471467 0)
(-0.25607 -0.515985 0)
(-0.259747 -0.559639 0)
(-0.262095 -0.60193 0)
(-0.264002 -0.644299 0)
(-0.268568 -0.692717 0)
(-0.280568 -0.757859 0)
(-0.301144 -0.845731 0)
(-0.318974 -0.936916 0)
(-0.309413 -0.973053 0)
(-0.250987 -0.878656 0)
(-0.149598 -0.621102 0)
(-0.0479546 -0.275107 0)
(0.000657829 -0.0233985 0)
(0.00493676 0.216371 0)
(0.00133975 0.452246 0)
(-0.0136354 0.577893 0)
(-0.0305881 0.665019 0)
(-0.0466479 0.729611 0)
(-0.0605944 0.7686 0)
(-0.0719435 0.779597 0)
(-0.0806944 0.764968 0)
(-0.0872683 0.73092 0)
(-0.0923788 0.685324 0)
(-0.0967752 0.635358 0)
(-0.101001 0.585846 0)
(-0.105291 0.538861 0)
(-0.10963 0.494429 0)
(-0.113896 0.451666 0)
(-0.117988 0.409675 0)
(-0.121875 0.367934 0)
(-0.125594 0.326283 0)
(-0.129211 0.284754 0)
(-0.132796 0.243412 0)
(-0.136406 0.202293 0)
(-0.140085 0.161388 0)
(-0.143878 0.120661 0)
(-0.147825 0.0800701 0)
(-0.151915 0.0395551 0)
(-0.156103 -0.000957808 0)
(-0.160559 -0.0415205 0)
(-0.165349 -0.0822228 0)
(-0.170355 -0.123139 0)
(-0.175576 -0.164328 0)
(-0.181001 -0.205852 0)
(-0.186616 -0.247774 0)
(-0.192408 -0.29017 0)
(-0.198355 -0.333126 0)
(-0.204423 -0.376732 0)
(-0.210541 -0.421038 0)
(-0.216558 -0.465974 0)
(-0.222199 -0.511215 0)
(-0.227022 -0.556062 0)
(-0.23055 -0.599608 0)
(-0.23284 -0.641863 0)
(-0.235694 -0.686464 0)
(-0.243559 -0.743496 0)
(-0.260781 -0.825275 0)
(-0.282471 -0.926213 0)
(-0.287197 -0.997081 0)
(-0.247885 -0.950985 0)
(-0.159346 -0.723112 0)
(-0.057387 -0.357128 0)
(-6.55168e-06 -0.0445537 0)
(0.00615171 0.210909 0)
(0.00961636 0.458258 0)
(0.001035 0.590753 0)
(-0.0103417 0.6788 0)
(-0.0214677 0.7422 0)
(-0.0312677 0.779339 0)
(-0.0394845 0.788343 0)
(-0.0461792 0.771905 0)
(-0.0516475 0.736487 0)
(-0.0563311 0.690062 0)
(-0.0606534 0.639732 0)
(-0.064883 0.590129 0)
(-0.0690965 0.543122 0)
(-0.0732421 0.498614 0)
(-0.077238 0.455701 0)
(-0.0810422 0.413526 0)
(-0.0846697 0.37162 0)
(-0.0881749 0.329859 0)
(-0.0916254 0.288283 0)
(-0.0950831 0.246954 0)
(-0.0985979 0.205895 0)
(-0.102209 0.165089 0)