/*--------------------------------*- C++ -*----------------------------------*\
  =========                 |
  \\      /  F ield         | OpenFOAM: The Open Source CFD Toolbox
   \\    /   O peration     | Website:  https://openfoam.org
    \\  /    A nd           | Version:  7
     \\/     M anipulation  |
\*---------------------------------------------------------------------------*/
FoamFile
{
    version     2.0;
    format      ascii;
    class       volScalarField;
    location    "400";
    object      p;
}
// * * * * * * * * * * * * * * * * * * * * * * * * * * * * * * * * * * * * * //

dimensions      [0 2 -2 0 0 0 0];

internalField   nonuniform List<scalar> 
2500
(
6.49133e-07
-8.56265e-05
-0.000402579
-0.000947782
-0.00165757
-0.00248371
-0.00339472
-0.00437009
-0.00539567
-0.00645961
-0.00754903
-0.00864773
-0.00973487
-0.0107845
-0.0117659
-0.0126441
-0.0133817
-0.0139406
-0.0142845
-0.0143819
-0.0142096
-0.0137561
-0.0130246
-0.0120362
-0.010831
-0.00946867
-0.00802634
-0.00659593
-0.00527856
-0.00417755
-0.00339024
-0.00299964
-0.00306655
-0.00362336
-0.00467031
-0.0061748
-0.00807387
-0.0102799
-0.0126889
-0.0151886
-0.0176673
-0.0200219
-0.0221627
-0.0240169
-0.0255282
-0.0266569
-0.0273802
-0.0276938
-0.0276333
-0.027388
8.57345e-05
-6.78321e-06
-0.000296496
-0.000784283
-0.00141822
-0.0021597
-0.00298359
-0.00387294
-0.00481547
-0.00580054
-0.00681647
-0.00784872
-0.00887873
-0.0098834
-0.0108352
-0.0117027
-0.0124516
-0.0130468
-0.0134538
-0.0136423
-0.0135886
-0.0132795
-0.012715
-0.0119114
-0.0109031
-0.00974298
-0.00850084
-0.0072613
-0.00611839
-0.00516895
-0.00450478
-0.00420445
-0.00432558
-0.00489872
-0.00592364
-0.00736875
-0.00917376
-0.011255
-0.0135135
-0.0158441
-0.0181435
-0.0203175
-0.0222864
-0.0239876
-0.0253752
-0.0264193
-0.0271045
-0.0274248
-0.0273875
-0.0271415
0.000414088
0.000272079
-3.15274e-05
-0.000490885
-0.0010688
-0.00173869
-0.00248376
-0.00329288
-0.00415788
-0.00507119
-0.00602384
-0.00700403
-0.00799609
-0.00898001
-0.00993129
-0.0108212
-0.0116177
-0.0122866
-0.0127935
-0.0131066
-0.0131994
-0.0130545
-0.0126666
-0.0120461
-0.0112208
-0.0102377
-0.00916099
-0.00807042
-0.00705629
-0.00621276
-0.00563006
-0.00538605
-0.0055383
-0.00611765
-0.00712434
-0.00852732
-0.0102669
-0.0122607
-0.0144116
-0.0166173
-0.0187792
-0.0208095
-0.0226362
-0.0242059
-0.0254831
-0.0264475
-0.0270905
-0.027402
-0.0273587
-0.0270843
0.000995543
0.000759847
0.000395978
-7.37736e-05
-0.000629997
-0.00125902
-0.00195324
-0.00270901
-0.00352418
-0.00439605
-0.0053198
-0.00628724
-0.00728597
-0.00829869
-0.00930288
-0.0102709
-0.0111702
-0.011965
-0.0126177
-0.0130916
-0.0133543
-0.0133818
-0.0131616
-0.0126975
-0.0120114
-0.0111462
-0.0101631
-0.00914085
-0.00817057
-0.00734877
-0.00676926
-0.00651421
-0.00664552
-0.00719777
-0.00817377
-0.00954347
-0.0112467
-0.0131994
-0.0153022
-0.0174508
-0.0195459
-0.021501
-0.0232478
-0.0247386
-0.0259452
-0.0268547
-0.0274637
-0.0277601
-0.0277042
-0.027411
0.00176086
0.00139646
0.000938134
0.000431445
-0.000126943
-0.000738657
-0.00140662
-0.00213595
-0.0029318
-0.00379751
-0.00473329
-0.00573522
-0.0067942
-0.00789524
-0.00901673
-0.0101302
-0.0112007
-0.0121879
-0.0130478
-0.0137361
-0.0142119
-0.0144421
-0.0144059
-0.0140989
-0.013537
-0.0127597
-0.0118264
-0.0108166
-0.00982435
-0.00895139
-0.00829865
-0.00795648
-0.00799523
-0.00845726
-0.00935152
-0.0106518
-0.012299
-0.0142075
-0.0162746
-0.0183912
-0.0204538
-0.0223732
-0.024081
-0.0255315
-0.0267009
-0.0275818
-0.0281759
-0.0284728
-0.02843
-0.0281546
0.00263247
0.00211416
0.00153819
0.00097654
0.000397796
-0.000217848
-0.000885329
-0.00161959
-0.00243394
-0.00333844
-0.00433891
-0.00543588
-0.00662345
-0.00788815
-0.00920794
-0.0105517
-0.0118794
-0.0131435
-0.014291
-0.015267
-0.0160195
-0.0165043
-0.0166901
-0.0165632
-0.0161319
-0.0154317
-0.0145202
-0.0134773
-0.0124011
-0.0114002
-0.0105852
-0.0100584
-0.00990318
-0.0101748
-0.0108936
-0.0120423
-0.0135668
-0.0153827
-0.0173847
-0.0194587
-0.0214944
-0.0233965
-0.0250921
-0.0265338
-0.0276986
-0.028582
-0.029189
-0.029514
-0.0295193
-0.0293013
0.00352543
0.0028368
0.0021286
0.00149955
0.000884688
0.000243101
-0.000453632
-0.00123116
-0.00211152
-0.00311195
-0.00424407
-0.00551283
-0.006915
-0.00843759
-0.0100565
-0.0117358
-0.0134279
-0.0150752
-0.0166128
-0.017973
-0.0190897
-0.0199053
-0.0203756
-0.0204753
-0.0202027
-0.0195869
-0.0186818
-0.0175667
-0.0163429
-0.0151267
-0.0140408
-0.0132029
-0.0127147
-0.0126512
-0.0130516
-0.0139148
-0.0151988
-0.0168254
-0.0186901
-0.0206746
-0.0226608
-0.024544
-0.0262423
-0.0277016
-0.0288945
-0.0298156
-0.0304705
-0.030857
-0.0309461
-0.0308193
0.00434422
0.00347638
0.00262821
0.00192311
0.00125717
0.000565565
-0.000195008
-0.00106166
-0.00206561
-0.00323148
-0.00457677
-0.00611052
-0.00783138
-0.00972556
-0.0117651
-0.0139069
-0.0160936
-0.0182549
-0.0203114
-0.0221793
-0.0237764
-0.0250284
-0.0258753
-0.0262769
-0.0262176
-0.0257161
-0.0248192
-0.0236027
-0.0221695
-0.0206428
-0.0191586
-0.0178539
-0.0168546
-0.016263
-0.016147
-0.0165319
-0.0173976
-0.0186811
-0.0202847
-0.0220889
-0.0239681
-0.0258054
-0.0275052
-0.029
-0.0302516
-0.0312473
-0.0319886
-0.0324736
-0.0326807
-0.0326727
0.00498284
0.00393346
0.00294277
0.00215505
0.00142236
0.000653465
-0.000211042
-0.00122042
-0.00241543
-0.00382828
-0.00548224
-0.00738998
-0.00955111
-0.0119496
-0.0145518
-0.0173055
-0.0201408
-0.0229725
-0.0257039
-0.0282328
-0.0304574
-0.0322833
-0.033631
-0.0344412
-0.0346799
-0.0343497
-0.0334855
-0.0321556
-0.0304604
-0.0285285
-0.0265087
-0.0245597
-0.022837
-0.0214788
-0.0205925
-0.0202431
-0.0204461
-0.0211659
-0.0223222
-0.0238009
-0.025471
-0.0272016
-0.028878
-0.0304122
-0.0317467
-0.0328527
-0.0337202
-0.0343418
-0.0346992
-0.0348328
0.00532657
0.00409912
0.00296722
0.00209081
0.00127364
0.000396132
-0.000618249
-0.0018315
-0.00329433
-0.00504668
-0.00711744
-0.00952239
-0.0122611
-0.0153139
-0.0186395
-0.0221747
-0.0258349
-0.0295173
-0.0331056
-0.0364758
-0.0395032
-0.0420698
-0.0440722
-0.0454274
-0.0460784
-0.0460055
-0.0452266
-0.0437961
-0.0418075
-0.0393901
-0.0367034
-0.0339275
-0.0312507
-0.0288543
-0.0268967
-0.025497
-0.0247234
-0.0245856
-0.0250358
-0.025977
-0.0272789
-0.0287969
-0.0303925
-0.0319485
-0.0333778
-0.0346242
-0.035656
-0.036452
-0.0369907
-0.0372857
0.00525525
0.00385839
0.00258942
0.00161754
0.000695223
-0.000326647
-0.00154246
-0.00302751
-0.00484279
-0.0070362
-0.00964211
-0.0126788
-0.0161448
-0.0200153
-0.0242398
-0.0287417
-0.0334195
-0.0381505
-0.0427956
-0.0472061
-0.0512307
-0.0547242
-0.0575552
-0.0596133
-0.0608142
-0.0611108
-0.0604993
-0.0590132
-0.056733
-0.0537826
-0.0503265
-0.0465622
-0.0427098
-0.0389971
-0.0356417
-0.0328318
-0.0307071
-0.0293446
-0.0287509
-0.0288648
-0.0295688
-0.0307098
-0.0321226
-0.0336518
-0.0351679
-0.0365741
-0.0378035
-0.0388099
-0.0395602
-0.0400359
0.00464801
0.00309509
0.0016952
0.000619647
-0.000431726
-0.00163784
-0.00311138
-0.00494132
-0.00719936
-0.00994149
-0.0132074
-0.0170173
-0.0213673
-0.0262262
-0.0315321
-0.0371929
-0.0430877
-0.0490706
-0.0549768
-0.0606295
-0.0658478
-0.0704561
-0.0742924
-0.0772164
-0.0791145
-0.0799094
-0.0795722
-0.0781095
-0.0755825
-0.072102
-0.0678285
-0.0629681
-0.0577654
-0.0524914
-0.0474257
-0.0428351
-0.0389491
-0.0359362
-0.0338858
-0.0327992
-0.0325939
-0.0331207
-0.0341898
-0.0356005
-0.0371673
-0.0387358
-0.0401873
-0.0414365
-0.0424287
-0.0431065
0.00338924
0.00169784
0.000174652
-0.00101445
-0.0022217
-0.00365514
-0.00544578
-0.00769658
-0.0104902
-0.0138908
-0.0179432
-0.0226683
-0.0280591
-0.0340754
-0.0406421
-0.0476484
-0.0549508
-0.0623772
-0.0697333
-0.0768114
-0.0833989
-0.0892878
-0.0942852
-0.0982211
-0.100953
-0.102375
-0.102431
-0.101098
-0.0984136
-0.0944671
-0.0894038
-0.0834251
-0.0767862
-0.0697887
-0.0627669
-0.056067
-0.0500195
-0.044907
-0.0409328
-0.0381967
-0.0366845
-0.0362753
-0.0367668
-0.0379109
-0.039453
-0.041162
-0.0428472
-0.0443668
-0.0456315
-0.0465358
0.00137536
-0.000433208
-0.00207085
-0.00338481
-0.00477674
-0.00648221
-0.00865016
-0.0113976
-0.0148182
-0.0189842
-0.0239446
-0.0297205
-0.0362991
-0.0436294
-0.0516194
-0.0601366
-0.0690108
-0.0780397
-0.0869968
-0.0956408
-0.103726
-0.111014
-0.117282
-0.122333
-0.126002
-0.128154
-0.128715
-0.127633
-0.124916
-0.120627
-0.114886
-0.107873
-0.0998341
-0.0910808
-0.0819821
-0.0729507
-0.0644164
-0.0567889
-0.0504141
-0.0455308
-0.0422379
-0.0404834
-0.0400787
-0.0407376
-0.0421281
-0.043923
-0.0458358
-0.0476461
-0.0492143
-0.0503738
-0.00147832
-0.00337946
-0.00512151
-0.00657234
-0.00817833
-0.0102
-0.0128035
-0.0161194
-0.0202522
-0.0252817
-0.0312602
-0.0382068
-0.0461006
-0.0548763
-0.0644214
-0.0745771
-0.0851423
-0.0958806
-0.10653
-0.116816
-0.12646
-0.135194
-0.142774
-0.148982
-0.153633
-0.156578
-0.157725
-0.157005
-0.154397
-0.149933
-0.143699
-0.135841
-0.126574
-0.116191
-0.105067
-0.0936504
-0.0824515
-0.0720025
-0.0628079
-0.0552826
-0.049691
-0.0461058
-0.0443991
-0.0442728
-0.0453213
-0.0471049
-0.0492148
-0.051326
-0.0532285
-0.0546756
-0.00523111
-0.00719741
-0.00903243
-0.0106318
-0.0124799
-0.014859
-0.0179509
-0.0218991
-0.0268184
-0.0327947
-0.039882
-0.0480948
-0.0574011
-0.0677169
-0.0789045
-0.0907741
-0.103089
-0.115576
-0.127936
-0.13986
-0.151042
-0.16119
-0.170043
-0.177372
-0.182986
-0.186728
-0.188497
-0.188219
-0.185848
-0.18139
-0.174894
-0.166461
-0.156257
-0.144528
-0.131618
-0.117971
-0.104139
-0.090747
-0.0784528
-0.0678682
-0.0594722
-0.0535289
-0.0500387
-0.0487431
-0.0491852
-0.0508073
-0.0530526
-0.0554605
-0.0577262
-0.0594966
-0.00991159
-0.0119133
-0.0138281
-0.0155859
-0.0177009
-0.0204729
-0.0240975
-0.02873
-0.0344937
-0.0414794
-0.0497401
-0.0592825
-0.0700592
-0.0819633
-0.0948267
-0.108424
-0.122479
-0.136679
-0.150688
-0.164166
-0.176782
-0.18823
-0.19824
-0.206585
-0.213074
-0.217556
-0.219929
-0.220127
-0.218089
-0.213802
-0.207279
-0.198576
-0.187798
-0.175126
-0.160834
-0.145321
-0.129121
-0.112906
-0.0974479
-0.0835489
-0.0719327
-0.0631197
-0.0573221
-0.0543989
-0.053893
-0.0551416
-0.0574214
-0.0601026
-0.0627555
-0.0648866
-0.0155138
-0.0175192
-0.0194985
-0.0214215
-0.0238227
-0.0270146
-0.0312045
-0.0365573
-0.0432031
-0.0512348
-0.0607017
-0.0715989
-0.0838591
-0.0973475
-0.111861
-0.127134
-0.14285
-0.158655
-0.174179
-0.189054
-0.202933
-0.215503
-0.226495
-0.23569
-0.242913
-0.248027
-0.250935
-0.251595
-0.249938
-0.245941
-0.239595
-0.23091
-0.219935
-0.206773
-0.191609
-0.174753
-0.156668
-0.138002
-0.119578
-0.102345
-0.0872678
-0.0751664
-0.0665503
-0.0614963
-0.0596306
-0.0602275
-0.0623941
-0.0653004
-0.0683554
-0.0708845
-0.0219956
-0.0239718
-0.0259976
-0.0280878
-0.0307869
-0.0344152
-0.0391885
-0.0452788
-0.0528204
-0.0619056
-0.0725763
-0.084812
-0.0985215
-0.113538
-0.129618
-0.146457
-0.163692
-0.180934
-0.197782
-0.213845
-0.228769
-0.24224
-0.254002
-0.263851
-0.271637
-0.277241
-0.280582
-0.281645
-0.280368
-0.276726
-0.270696
-0.262261
-0.251419
-0.238199
-0.222693
-0.205094
-0.185752
-0.165219
-0.14429
-0.123979
-0.105445
-0.0898114
-0.077951
-0.0702666
-0.0665815
-0.066186
-0.0680404
-0.0710926
-0.0745521
-0.077513
-0.029279
-0.0311921
-0.0332437
-0.0354973
-0.038497
-0.0425655
-0.0479237
-0.0547479
-0.0631733
-0.0732886
-0.0851245
-0.0986416
-0.113721
-0.130159
-0.147674
-0.165916
-0.184485
-0.202954
-0.220898
-0.237914
-0.253643
-0.267784
-0.280095
-0.290398
-0.298566
-0.30451
-0.308166
-0.309547
-0.308607
-0.305328
-0.299686
-0.291649
-0.281182
-0.268256
-0.252877
-0.235121
-0.215195
-0.193507
-0.170737
-0.147868
-0.126159
-0.106992
-0.0916243
-0.080878
-0.0749051
-0.0731283
-0.0744203
-0.0775041
-0.0813534
-0.0847735
-0.037253
-0.0390693
-0.0411227
-0.0435292
-0.0468218
-0.0513205
-0.0572477
-0.0647804
-0.0740518
-0.0851432
-0.0980714
-0.112775
-0.129103
-0.146818
-0.165597
-0.185047
-0.204732
-0.224198
-0.243
-0.260729
-0.277032
-0.291622
-0.304279
-0.31485
-0.323237
-0.329379
-0.333237
-0.33484
-0.334171
-0.331221
-0.325975
-0.3184
-0.308446
-0.296049
-0.28115
-0.263723
-0.243836
-0.221723
-0.197885
-0.173176
-0.148836
-0.126408
-0.107496
-0.0933929
-0.0847072
-0.0811394
-0.0815751
-0.0845393
-0.0887432
-0.0926403
-0.0457787
-0.0474651
-0.0494935
-0.0520348
-0.0556016
-0.0605062
-0.0669688
-0.0751635
-0.0852179
-0.0972035
-0.11112
-0.126883
-0.14431
-0.163127
-0.182971
-0.203416
-0.223992
-0.244223
-0.263653
-0.281874
-0.298544
-0.313392
-0.326224
-0.336913
-0.345386
-0.351609
-0.355568
-0.357305
-0.356829
-0.354148
-0.34926
-0.342142
-0.332745
-0.320993
-0.306787
-0.290032
-0.270676
-0.248783
-0.224647
-0.198912
-0.172683
-0.147523
-0.125287
-0.107731
-0.0960095
-0.090258
-0.0895155
-0.0921743
-0.0966748
-0.101055
-0.0546955
-0.0562205
-0.0581946
-0.0608452
-0.0646563
-0.0699284
-0.0768758
-0.085666
-0.0964184
-0.109192
-0.123969
-0.140639
-0.158992
-0.178718
-0.199421
-0.220642
-0.241888
-0.262669
-0.282522
-0.301046
-0.317911
-0.332869
-0.345746
-0.35644
-0.364903
-0.371121
-0.375102
-0.3769
-0.376547
-0.374064
-0.369469
-0.362755
-0.353886
-0.342792
-0.329364
-0.313468
-0.294968
-0.27379
-0.250021
-0.224059
-0.196773
-0.169608
-0.144521
-0.123647
-0.108721
-0.100456
-0.0982087
-0.100349
-0.105065
-0.109921
-0.0638291
-0.065164
-0.0670526
-0.0697796
-0.0737945
-0.0793822
-0.086748
-0.0960499
-0.107396
-0.120833
-0.136322
-0.153732
-0.172824
-0.193259
-0.214613
-0.236403
-0.258118
-0.279258
-0.299362
-0.318038
-0.334971
-0.34993
-0.362766
-0.373395
-0.381786
-0.387945
-0.391896
-0.393699
-0.393408
-0.391057
-0.386679
-0.38029
-0.371875
-0.361381
-0.348712
-0.333725
-0.316242
-0.296091
-0.273188
-0.247685
-0.220161
-0.191819
-0.16455
-0.140726
-0.122622
-0.111617
-0.107565
-0.108957
-0.113786
-0.119097
-0.0729997
-0.0741196
-0.0758905
-0.0786547
-0.0828228
-0.0886622
-0.0963662
-0.106081
-0.117902
-0.131861
-0.147903
-0.165875
-0.185517
-0.206464
-0.228272
-0.25044
-0.272446
-0.293787
-0.314007
-0.332723
-0.349636
-0.364532
-0.377277
-0.387803
-0.396094
-0.402168
-0.406058
-0.407832
-0.407558
-0.405279
-0.401047
-0.394897
-0.386838
-0.376845
-0.364848
-0.350719
-0.334274
-0.315288
-0.29356
-0.269027
-0.241974
-0.21328
-0.184617
-0.158409
-0.137356
-0.123527
-0.117425
-0.11784
-0.122664
-0.128396
-0.0820309
-0.0829156
-0.0845368
-0.0872934
-0.0915557
-0.0975718
-0.105522
-0.115538
-0.127704
-0.142035
-0.158463
-0.176818
-0.19682
-0.218092
-0.240172
-0.262549
-0.284697
-0.306114
-0.326349
-0.345031
-0.361872
-0.376673
-0.389309
-0.399725
-0.407912
-0.413895
-0.417715
-0.419441
-0.419153
-0.4169
-0.41275
-0.406756
-0.398952
-0.389345
-0.377896
-0.36451
-0.349023
-0.331202
-0.310777
-0.287533
-0.261489
-0.233173
-0.203925
-0.176034
-0.152446
-0.135867
-0.127555
-0.126784
-0.131473
-0.137579
-0.0907572
-0.0913918
-0.0928331
-0.0955334
-0.0998231
-0.105932
-0.114025
-0.124223
-0.136593
-0.151141
-0.167785
-0.186344
-0.206528
-0.227948
-0.250136
-0.272578
-0.294746
-0.316143
-0.336325
-0.354929
-0.371677
-0.386376
-0.398911
-0.409229
-0.417326
-0.42323
-0.426985
-0.428657
-0.428337
-0.426076
-0.421956
-0.416045
-0.408403
-0.399063
-0.388027
-0.375238
-0.360572
-0.343814
-0.324679
-0.302856
-0.278163
-0.250798
-0.221707
-0.192885
-0.16732
-0.148223
-0.137644
-0.13551
-0.139933
-0.14636
-0.099031
-0.0994071
-0.10064
-0.103234
-0.107478
-0.113587
-0.121714
-0.131964
-0.144394
-0.158999
-0.17569
-0.19428
-0.214474
-0.235882
-0.258033
-0.280416
-0.302508
-0.323815
-0.343901
-0.362408
-0.379061
-0.393674
-0.406131
-0.41638
-0.424414
-0.430262
-0.433967
-0.435589
-0.435229
-0.432938
-0.428806
-0.422919
-0.415354
-0.406175
-0.395419
-0.383074
-0.36906
-0.353206
-0.335244
-0.314828
-0.29164
-0.265609
-0.237281
-0.208252
-0.181348
-0.160099
-0.147306
-0.143682
-0.147715
-0.154404
-0.106729
-0.106845
-0.107846
-0.110279
-0.114402
-0.120413
-0.128455
-0.138622
-0.150962
-0.165464
-0.182036
-0.20049
-0.220534
-0.241781
-0.263769
-0.28599
-0.307929
-0.329097
-0.349063
-0.36747
-0.384045
-0.398599
-0.411013
-0.42123
-0.429238
-0.43506
-0.438737
-0.440322
-0.439923
-0.437589
-0.433416
-0.427502
-0.419944
-0.410832
-0.400235
-0.388184
-0.37465
-0.359513
-0.342546
-0.323413
-0.301727
-0.277221
-0.250088
-0.221474
-0.193881
-0.17094
-0.156089
-0.150908
-0.154439
-0.161331
-0.113753
-0.113617
-0.114367
-0.116588
-0.120509
-0.126317
-0.134149
-0.144092
-0.156189
-0.170426
-0.186715
-0.204872
-0.224616
-0.245569
-0.26728
-0.289251
-0.310976
-0.331971
-0.351807
-0.370125
-0.386648
-0.401179
-0.413592
-0.42382
-0.431843
-0.437674
-0.441351
-0.442921
-0.442488
-0.440104
-0.43587
-0.429893
-0.422287
-0.413161
-0.402617
-0.390725
-0.377503
-0.362889
-0.346709
-0.328665
-0.308357
-0.285399
-0.259705
-0.23198
-0.20429
-0.180159
-0.163492
-0.156741
-0.159678
-0.16672
-0.120036
-0.119662
-0.120151
-0.122111
-0.125746
-0.131242
-0.138733
-0.148307
-0.160005
-0.173818
-0.189663
-0.207372
-0.226675
-0.247213
-0.268549
-0.290198
-0.311662
-0.332462
-0.352167
-0.370414
-0.386917
-0.401466
-0.413923
-0.424207
-0.432286
-0.438163
-0.441866
-0.443439
-0.442975
-0.440543
-0.436236
-0.43017
-0.422471
-0.413267
-0.402686
-0.390833
-0.377772
-0.363491
-0.34788
-0.330693
-0.311556
-0.290033
-0.265839
-0.2393
-0.211995
-0.187164
-0.168975
-0.160693
-0.162963
-0.17011
-0.12554
-0.12495
-0.125174
-0.126828
-0.130095
-0.135163
-0.142175
-0.151225
-0.162363
-0.175589
-0.190834
-0.207947
-0.226678
-0.246688
-0.267559
-0.288819
-0.309981
-0.330569
-0.350148
-0.368347
-0.384865
-0.399478
-0.412029
-0.422422
-0.430608
-0.436576
-0.440346
-0.441954
-0.441481
-0.439002
-0.434608
-0.428424
-0.420588
-0.411247
-0.400552
-0.388635
-0.375597
-0.361475
-0.346217
-0.329637
-0.311412
-0.291104
-0.268318
-0.243077
-0.216487
-0.191377
-0.17197
-0.162233
-0.163781
-0.171001
-0.130255
-0.129479
-0.129441
-0.13075
-0.133568
-0.13809
-0.144477
-0.152843
-0.163254
-0.175728
-0.190217
-0.206592
-0.224627
-0.244005
-0.264329
-0.285144
-0.305971
-0.326335
-0.345796
-0.363969
-0.380539
-0.395261
-0.407955
-0.418506
-0.426847
-0.432951
-0.436826
-0.438499
-0.43804
-0.435531
-0.431058
-0.424752
-0.416759
-0.407236
-0.396352
-0.384268
-0.371121
-0.356994
-0.34188
-0.325654
-0.308049
-0.288666
-0.267062
-0.243054
-0.217331
-0.192248
-0.171897
-0.160792
-0.161572
-0.168846
-0.134201
-0.133275
-0.132988
-0.133916
-0.136204
-0.140059
-0.145671
-0.153184
-0.162696
-0.174252
-0.187832
-0.203332
-0.220555
-0.239208
-0.258914
-0.279236
-0.299701
-0.319833
-0.339186
-0.35736
-0.374018
-0.388891
-0.401778
-0.412538
-0.421084
-0.427371
-0.431392
-0.433167
-0.432748
-0.430229
-0.425685
-0.419251
-0.411082
-0.401345
-0.390224
-0.377898
-0.364525
-0.350225
-0.335042
-0.318911
-0.301619
-0.282814
-0.262062
-0.239059
-0.214166
-0.18926
-0.168161
-0.155756
-0.155723
-0.163044
-0.137419
-0.136387
-0.13587
-0.136388
-0.138066
-0.141128
-0.145806
-0.152291
-0.160727
-0.171198
-0.183718
-0.198214
-0.214518
-0.232362
-0.251391
-0.271179
-0.291262
-0.311161
-0.330418
-0.348618
-0.365399
-0.380468
-0.393597
-0.404618
-0.413421
-0.419942
-0.424156
-0.426073
-0.425731
-0.423225
-0.418627
-0.41207
-0.403715
-0.393736
-0.382327
-0.369683
-0.355984
-0.34137
-0.325914
-0.309601
-0.292287
-0.273675
-0.253359
-0.230987
-0.206694
-0.181925
-0.160148
-0.146455
-0.145543
-0.152914
-0.139974
-0.138887
-0.138167
-0.138246
-0.139231
-0.141368
-0.144946
-0.150221
-0.157399
-0.166617
-0.177931
-0.191303
-0.206594
-0.22356
-0.241863
-0.261089
-0.280778
-0.300447
-0.319625
-0.337878
-0.354819
-0.370128
-0.383547
-0.394881
-0.403996
-0.410803
-0.415262
-0.417368
-0.417148
-0.414687
-0.410061
-0.403396
-0.394854
-0.384615
-0.372878
-0.359845
-0.34571
-0.330633
-0.314709
-0.297947
-0.280249
-0.261389
-0.241016
-0.218771
-0.194655
-0.169773
-0.147211
-0.132144
-0.130241
-0.137663
-0.14195
-0.140865
-0.139972
-0.139584
-0.139786
-0.140859
-0.143161
-0.147037
-0.152773
-0.160573
-0.170545
-0.182686
-0.196886
-0.21292
-0.230466
-0.249117
-0.268412
-0.287863
-0.306984
-0.325319
-0.342458
-0.358049
-0.371808
-0.383509
-0.392989
-0.40014
-0.404899
-0.407248
-0.407201
-0.404827
-0.400209
-0.393461
-0.384742
-0.374234
-0.362133
-0.348647
-0.333971
-0.318273
-0.301663
-0.284171
-0.265717
-0.24612
-0.225105
-0.202353
-0.177802
-0.152323
-0.128651
-0.111963
-0.10888
-0.116334
-0.143445
-0.142429
-0.141396
-0.140503
-0.139821
-0.139675
-0.140516
-0.142799
-0.146913
-0.153141
-0.161648
-0.172471
-0.185523
-0.200596
-0.217374
-0.235454
-0.25437
-0.273626
-0.292719
-0.311171
-0.328546
-0.344466
-0.358612
-0.370732
-0.380636
-0.388189
-0.393308
-0.395958
-0.396141
-0.393906
-0.389342
-0.382545
-0.37367
-0.362891
-0.3504
-0.336397
-0.321072
-0.304589
-0.287058
-0.268515
-0.248896
-0.228032
-0.205696
-0.181658
-0.155863
-0.129048
-0.103674
-0.0848971
-0.080317
-0.0877238
-0.144582
-0.143711
-0.142566
-0.141112
-0.139416
-0.137877
-0.137062
-0.13756
-0.13988
-0.144399
-0.151343
-0.160788
-0.172665
-0.186773
-0.202799
-0.220334
-0.238906
-0.258002
-0.277106
-0.295716
-0.313371
-0.329663
-0.344246
-0.356838
-0.367221
-0.375236
-0.380778
-0.383793
-0.384269
-0.382236
-0.377775
-0.370974
-0.361971
-0.350929
-0.338026
-0.323444
-0.307358
-0.289913
-0.271204
-0.251253
-0.229992
-0.207261
-0.182838
-0.156567
-0.1285
-0.0993307
-0.0713399
-0.049696
-0.0431048
-0.0502641
-0.145512
-0.144869
-0.143628
-0.141518
-0.138643
-0.135507
-0.13283
-0.131356
-0.131732
-0.134434
-0.139752
-0.147795
-0.158504
-0.171679
-0.186998
-0.204041
-0.222321
-0.241312
-0.260476
-0.279291
-0.297272
-0.313983
-0.329051
-0.342166
-0.353083
-0.361619
-0.367647
-0.371093
-0.371928
-0.370164
-0.365864
-0.359109
-0.350013
-0.338719
-0.325383
-0.310159
-0.293191
-0.274592
-0.25442
-0.232663
-0.209223
-0.183918
-0.156528
-0.126907
-0.0952646
-0.0624124
-0.0305095
-0.00478976
0.00465472
-0.00182151
-0.146441
-0.146114
-0.144756
-0.141833
-0.137551
-0.132581
-0.127825
-0.124208
-0.122523
-0.123345
-0.127022
-0.133685
-0.143278
-0.155589
-0.170279
-0.186909
-0.204974
-0.223927
-0.243213
-0.262287
-0.280642
-0.297819
-0.313417
-0.327103
-0.338605
-0.347717
-0.354291
-0.35823
-0.359488
-0.358061
-0.353982
-0.347323
-0.338168
-0.326634
-0.312843
-0.29691
-0.278931
-0.258967
-0.237019
-0.213011
-0.186782
-0.158095
-0.126695
-0.0924443
-0.0556265
-0.0173538
0.0201725
0.0517119
0.0653892
0.0604995
-0.147688
-0.147743
-0.146182
-0.142182
-0.13618
-0.129089
-0.122034
-0.116133
-0.112318
-0.111256
-0.113336
-0.118699
-0.127277
-0.138835
-0.153007
-0.16933
-0.187274
-0.206272
-0.225749
-0.245142
-0.263921
-0.281606
-0.297775
-0.312071
-0.324201
-0.333935
-0.341103
-0.34559
-0.347327
-0.34629
-0.342489
-0.335967
-0.326783
-0.315013
-0.300739
-0.284021
-0.264893
-0.243339
-0.219275
-0.192529
-0.162834
-0.129849
-0.0932358
-0.0528235
-0.00893887
0.0370176
0.0823635
0.121976
0.142001
0.140395
-0.14981
-0.150232
-0.148234
-0.142727
-0.134571
-0.125017
-0.115448
-0.107164
-0.101217
-0.0983394
-0.0989381
-0.103142
-0.110857
-0.121812
-0.135608
-0.15175
-0.169683
-0.188817
-0.208559
-0.228326
-0.247573
-0.265802
-0.282572
-0.297505
-0.310288
-0.320672
-0.328466
-0.333533
-0.335785
-0.335174
-0.331685
-0.325328
-0.316129
-0.304116
-0.289318
-0.271732
-0.251308
-0.227932
-0.201399
-0.1714
-0.13751
-0.0992224
-0.0560404
-0.00768549
0.0455229
0.102056
0.158268
0.208767
0.23829
0.242738
-0.153868
-0.154403
-0.151432
-0.143718
-0.132812
-0.12039
-0.108101
-0.0973942
-0.0893906
-0.0848454
-0.0841511
-0.0873986
-0.0944473
-0.104983
-0.118564
-0.134664
-0.152699
-0.172059
-0.192131
-0.212321
-0.232066
-0.250856
-0.268234
-0.283806
-0.297243
-0.308276
-0.316696
-0.322347
-0.325118
-0.324938
-0.321764
-0.315575
-0.306352
-0.294074
-0.278703
-0.26016
-0.238296
-0.21287
-0.183525
-0.149765
-0.110946
-0.0663134
-0.015114
0.0431565
0.108313
0.178782
0.250362
0.316039
0.360519
0.375952
-0.16199
-0.161761
-0.156664
-0.14561
-0.131137
-0.115365
-0.100154
-0.087043
-0.0771374
-0.0711441
-0.0694058
-0.0719433
-0.0785528
-0.0888663
-0.102399
-0.118589
-0.136827
-0.156483
-0.176932
-0.197564
-0.217811
-0.237148
-0.25511
-0.271289
-0.285341
-0.296984
-0.305992
-0.312189
-0.315445
-0.315665
-0.312777
-0.306724
-0.297448
-0.28487
-0.268875
-0.249294
-0.225865
-0.198199
-0.165752
-0.12779
-0.0833818
-0.0314313
0.0291988
0.0994028
0.179322
0.26756
0.359875
0.447924
0.516613
0.553456
-0.178429
-0.17511
-0.165479
-0.149244
-0.130073
-0.110356
-0.092011
-0.0765428
-0.0649332
-0.0577539
-0.0552469
-0.0573308
-0.063723
-0.0739958
-0.0876198
-0.104
-0.122506
-0.142492
-0.163321
-0.184378
-0.205086
-0.224917
-0.243394
-0.260105
-0.274695
-0.286868
-0.296385
-0.303054
-0.306727
-0.307284
-0.304627
-0.298663
-0.289291
-0.276374
-0.259719
-0.239054
-0.213992
-0.18398
-0.148258
-0.105818
-0.0553755
0.00461393
0.0758354
0.15982
0.257361
0.367555
0.486391
0.605999
0.707807
0.779827
-0.211346
-0.199542
-0.180378
-0.155866
-0.130393
-0.105983
-0.0842544
-0.0664627
-0.0533458
-0.0452547
-0.0422403
-0.0440952
-0.0504483
-0.06081
-0.074609
-0.0912232
-0.110004
-0.130297
-0.151459
-0.172873
-0.193959
-0.214186
-0.233076
-0.250211
-0.265229
-0.277826
-0.287752
-0.294803
-0.298811
-0.299637
-0.297156
-0.291242
-0.281747
-0.268481
-0.251174
-0.22945
-0.202793
-0.170485
-0.131543
-0.084663
-0.0281649
0.0400327
0.122354
0.221342
0.339099
0.476203
0.629781
0.791368
0.930627
1.03508
-0.280268
-0.243425
-0.202843
-0.164846
-0.131106
-0.101384
-0.0763113
-0.0565444
-0.0423527
-0.0337341
-0.0305184
-0.0323742
-0.0388456
-0.0493896
-0.0634043
-0.080251
-0.0992729
-0.119813
-0.14123
-0.162908
-0.18427
-0.204788
-0.223984
-0.241437
-0.256782
-0.269711
-0.279964
-0.287325
-0.291613
-0.29267
-0.290346
-0.284484
-0.274897
-0.261343
-0.243483
-0.220855
-0.192831
-0.158541
-0.116807
-0.0660559
-0.00423023
0.0713034
0.163822
0.277242
0.415934
0.584128
0.784041
1.00989
1.21713
1.36925
-0.458006
-0.313114
-0.218544
-0.164612
-0.124203
-0.0903217
-0.0635318
-0.0434958
-0.0295011
-0.0212298
-0.0184431
-0.0207494
-0.0276444
-0.0385692
-0.0529243
-0.0700779
-0.0893823
-0.11019
-0.131869
-0.153813
-0.175451
-0.196258
-0.21576
-0.233537
-0.24922
-0.262496
-0.273099
-0.280804
-0.285417
-0.286766
-0.284682
-0.278985
-0.269455
-0.255812
-0.237678
-0.214535
-0.185677
-0.150135
-0.106602
-0.0533301
0.0119974
0.092423
0.191934
0.315784
0.471001
0.667292
0.918074
1.23959
1.62916
2.07738
-0.913078
-0.400336
-0.194419
-0.145763
-0.108161
-0.0713181
-0.0445481
-0.0263698
-0.0140606
-0.0070446
-0.00527654
-0.00842726
-0.0160048
-0.0274831
-0.0423018
-0.0598606
-0.0795349
-0.100696
-0.122726
-0.145028
-0.16704
-0.188241
-0.208156
-0.226364
-0.242494
-0.256229
-0.267295
-0.275461
-0.280524
-0.282301
-0.280614
-0.275269
-0.266036
-0.252622
-0.234627
-0.211515
-0.182549
-0.146733
-0.102721
-0.0487133
0.0176899
0.099683
0.201568
0.329306
0.491603
0.702382
0.986698
1.39868
2.06764
3.21982
)
;

boundaryField
{
    movingWall
    {
        type            zeroGradient;
    }
    fixedWalls
    {
        type            zeroGradient;
    }
    frontAndBack
    {
        type            empty;
    }
}


// ************************************************************************* //
