/*--------------------------------*- C++ -*----------------------------------*\
  =========                 |
  \\      /  F ield         | OpenFOAM: The Open Source CFD Toolbox
   \\    /   O peration     | Website:  https://openfoam.org
    \\  /    A nd           | Version:  7
     \\/     M anipulation  |
\*---------------------------------------------------------------------------*/
FoamFile
{
    version     2.0;
    format      ascii;
    class       volVectorField;
    location    "400";
    object      U;
}
// * * * * * * * * * * * * * * * * * * * * * * * * * * * * * * * * * * * * * //

dimensions      [0 1 -1 0 0 0 0];

internalField   nonuniform List<vector> 
2500
(
(0.000110215 -0.000111208 0)
(0.000488628 -0.00015108 0)
(0.000833482 -0.000126312 0)
(0.000998699 -7.91207e-05 0)
(0.000908338 -3.11994e-05 0)
(0.000557592 1.15672e-05 0)
(-3.60243e-05 4.82646e-05 0)
(-0.000852728 8.02698e-05 0)
(-0.00187724 0.000109745 0)
(-0.0031001 0.00013867 0)
(-0.00451615 0.000168387 0)
(-0.00612158 0.000199491 0)
(-0.00791069 0.000231858 0)
(-0.00987279 0.000264735 0)
(-0.0119897 0.000296834 0)
(-0.0142337 0.000326414 0)
(-0.0165663 0.000351366 0)
(-0.0189375 0.000369305 0)
(-0.0212859 0.000377693 0)
(-0.0235398 0.000374 0)
(-0.0256189 0.000355912 0)
(-0.0274375 0.000321572 0)
(-0.0289082 0.000269852 0)
(-0.0299465 0.000200627 0)
(-0.0304767 0.000115038 0)
(-0.0304373 1.5634e-05 0)
(-0.0297871 -9.36797e-05 0)
(-0.0285095 -0.000207589 0)
(-0.0266171 -0.00031973 0)
(-0.0241537 -0.000423112 0)
(-0.0211943 -0.000510675 0)
(-0.0178429 -0.000575973 0)
(-0.0142278 -0.000613864 0)
(-0.0104944 -0.00062113 0)
(-0.00679597 -0.000596919 0)
(-0.00328409 -0.000542894 0)
(-9.80221e-05 -0.000463043 0)
(0.00264443 -0.000363434 0)
(0.00485396 -0.000251582 0)
(0.00647413 -0.000135224 0)
(0.007483 -2.14535e-05 0)
(0.00789195 8.37463e-05 0)
(0.00774197 0.000175832 0)
(0.00709952 0.000251495 0)
(0.00605354 0.000307744 0)
(0.00471584 0.000340408 0)
(0.00322694 0.000342317 0)
(0.00177445 0.000300662 0)
(0.000625122 0.000191972 0)
(2.9777e-05 2.9755e-05 0)
(0.000155447 -0.000495618 0)
(0.000689789 -0.000691784 0)
(0.000981788 -0.000439025 0)
(0.000781205 1.02116e-05 0)
(-4.75888e-05 0.000514975 0)
(-0.001526 0.00100976 0)
(-0.00363122 0.00147256 0)
(-0.0063301 0.00190356 0)
(-0.00959258 0.00231131 0)
(-0.0133948 0.00270449 0)
(-0.0177159 0.00308759 0)
(-0.0225327 0.00345926 0)
(-0.0278119 0.00381212 0)
(-0.0335047 0.00413347 0)
(-0.039541 0.0044063 0)
(-0.0458259 0.00461049 0)
(-0.0522383 0.00472419 0)
(-0.0586306 0.00472528 0)
(-0.0648315 0.00459297 0)
(-0.0706501 0.00430962 0)
(-0.0758827 0.00386259 0)
(-0.0803212 0.00324611 0)
(-0.083763 0.00246296 0)
(-0.0860224 0.00152587 0)
(-0.0869426 0.00045835 0)
(-0.0864063 -0.000705243 0)
(-0.0843475 -0.0019208 0)
(-0.0807584 -0.00313594 0)
(-0.075695 -0.004293 0)
(-0.0692796 -0.00533253 0)
(-0.0616987 -0.0061974 0)
(-0.0531972 -0.00683735 0)
(-0.044068 -0.00721334 0)
(-0.0346381 -0.00730142 0)
(-0.0252518 -0.00709535 0)
(-0.0162511 -0.00660783 0)
(-0.00795613 -0.00586972 0)
(-0.000646597 -0.00492777 0)
(0.0054543 -0.0038406 0)
(0.0101916 -0.00267322 0)
(0.013485 -0.00149104 0)
(0.0153306 -0.000355552 0)
(0.0157974 0.000678415 0)
(0.015022 0.00156291 0)
(0.0132035 0.00225235 0)
(0.0106022 0.00269614 0)
(0.00754274 0.00282879 0)
(0.00443443 0.00256302 0)
(0.0018185 0.00181044 0)
(0.000193579 0.000627126 0)
(0.000130221 -0.000842667 0)
(0.000379267 -0.000974902 0)
(6.81268e-05 -0.00020989 0)
(-0.0010512 0.000958628 0)
(-0.00310537 0.00225486 0)
(-0.00611519 0.00354319 0)
(-0.0100571 0.00477231 0)
(-0.0148947 0.00593583 0)
(-0.020591 0.00704473 0)
(-0.0271107 0.00810995 0)
(-0.0344147 0.00913302 0)
(-0.0424522 0.0101022 0)
(-0.0511524 0.0109922 0)
(-0.0604166 0.0117657 0)
(-0.0701127 0.0123767 0)
(-0.080072 0.0127734 0)
(-0.0900897 0.0129021 0)
(-0.0999273 0.0127117 0)
(-0.109319 0.0121573 0)
(-0.117979 0.0112051 0)
(-0.125615 0.00983603 0)
(-0.131941 0.00804968 0)
(-0.136686 0.0058671 0)
(-0.139616 0.00333265 0)
(-0.140544 0.000514521 0)
(-0.139339 -0.0024964 0)
(-0.135944 -0.00558978 0)
(-0.130379 -0.00864075 0)
(-0.122741 -0.0115161 0)
(-0.113214 -0.0140817 0)
(-0.102056 -0.0162107 0)
(-0.0895975 -0.0177928 0)
(-0.0762287 -0.0187421 0)
(-0.0623823 -0.0190052 0)
(-0.0485153 -0.0185666 0)
(-0.0350868 -0.0174511 0)
(-0.0225349 -0.0157234 0)
(-0.0112533 -0.0134841 0)
(-0.00156962 -0.010862 0)
(0.00627123 -0.00800476 0)
(0.0121202 -0.00506729 0)
(0.0159312 -0.0022012 0)
(0.0177615 0.000451639 0)
(0.0177687 0.00276122 0)
(0.0162057 0.0046039 0)
(0.0134167 0.00585118 0)
(0.00983382 0.00635537 0)
(0.0059915 0.00594137 0)
(0.0025914 0.00443298 0)
(0.000303841 0.00178759 0)
(6.79049e-05 -0.000955121 0)
(-0.000257171 -0.000622877 0)
(-0.00156398 0.00100052 0)
(-0.00402758 0.00320175 0)
(-0.00770849 0.00558533 0)
(-0.0126019 0.00795487 0)
(-0.0186748 0.0102338 0)
(-0.0258865 0.0124088 0)
(-0.0341951 0.0144892 0)
(-0.0435535 0.0164812 0)
(-0.0539022 0.018374 0)
(-0.0651582 0.0201342 0)
(-0.0772065 0.0217065 0)
(-0.0898925 0.0230172 0)
(-0.103018 0.0239798 0)
(-0.116341 0.0245017 0)
(-0.129579 0.0244917 0)
(-0.142415 0.0238672 0)
(-0.154509 0.0225615 0)
(-0.165508 0.0205306 0)
(-0.175064 0.0177595 0)
(-0.182846 0.0142667 0)
(-0.188556 0.010107 0)
(-0.191943 0.00537288 0)
(-0.192814 0.000193588 0)
(-0.191049 -0.00526784 0)
(-0.186605 -0.0108209 0)
(-0.179521 -0.0162561 0)
(-0.169924 -0.0213543 0)
(-0.158024 -0.0258968 0)
(-0.14412 -0.0296784 0)
(-0.128583 -0.0325193 0)
(-0.111852 -0.0342787 0)
(-0.0944212 -0.0348654 0)
(-0.0768151 -0.0342469 0)
(-0.0595716 -0.0324547 0)
(-0.043215 -0.0295852 0)
(-0.0282305 -0.0257946 0)
(-0.0150382 -0.0212894 0)
(-0.00397069 -0.0163124 0)
(0.00474572 -0.0111263 0)
(0.0110032 -0.00599806 0)
(0.0148201 -0.00118432 0)
(0.0163407 0.00307243 0)
(0.0158302 0.00654175 0)
(0.0136708 0.00899137 0)
(0.010353 0.0101709 0)
(0.00648725 0.00979907 0)
(0.00288338 0.00757742 0)
(0.000344879 0.00326251 0)
(-1.41659e-05 -0.00067758 0)
(-0.00111079 0.00067751 0)
(-0.00370188 0.00356564 0)
(-0.00783547 0.00711116 0)
(-0.0134594 0.0108393 0)
(-0.0205195 0.0145207 0)
(-0.0289623 0.018069 0)
(-0.038738 0.0214688 0)
(-0.0497972 0.0247253 0)
(-0.06208 0.0278318 0)
(-0.0755029 0.0307536 0)
(-0.0899479 0.0334239 0)
(-0.105253 0.0357454 0)
(-0.121205 0.0375979 0)
(-0.137544 0.0388478 0)
(-0.153961 0.0393585 0)
(-0.170108 0.0390018 0)
(-0.185609 0.0376687 0)
(-0.200072 0.0352791 0)
(-0.213106 0.0317907 0)
(-0.224335 0.0272053 0)
(-0.233413 0.0215731 0)
(-0.240036 0.0149948 0)
(-0.243951 0.00762038 0)
(-0.244973 -0.000352864 0)
(-0.242986 -0.00868573 0)
(-0.237949 -0.0171061 0)
(-0.229903 -0.0253193 0)
(-0.218974 -0.0330193 0)
(-0.205373 -0.0399013 0)
(-0.1894 -0.0456773 0)
(-0.171435 -0.0500923 0)
(-0.151938 -0.0529406 0)
(-0.131432 -0.0540822 0)
(-0.110489 -0.0534557 0)
(-0.0897095 -0.0510875 0)
(-0.0696933 -0.0470953 0)
(-0.051013 -0.0416844 0)
(-0.0341825 -0.0351374 0)
(-0.0196289 -0.0277964 0)
(-0.00766722 -0.0200423 0)
(0.001518 -0.0122716 0)
(0.00788517 -0.00487819 0)
(0.011541 0.00176006 0)
(0.0127366 0.00728199 0)
(0.0118625 0.0113299 0)
(0.00943876 0.0135315 0)
(0.00612337 0.0134799 0)
(0.00279398 0.010726 0)
(0.000341458 0.00478797 0)
(-0.000110656 8.35348e-05 0)
(-0.00211775 0.00313685 0)
(-0.00620357 0.00775158 0)
(-0.0122468 0.0129641 0)
(-0.0200465 0.0182768 0)
(-0.0294803 0.0234667 0)
(-0.0404639 0.0284611 0)
(-0.0529329 0.0332524 0)
(-0.066827 0.0378397 0)
(-0.0820702 0.0421956 0)
(-0.0985531 0.0462506 0)
(-0.116121 0.0498926 0)
(-0.134563 0.0529729 0)
(-0.153616 0.0553183 0)
(-0.172962 0.0567455 0)
(-0.192239 0.057076 0)
(-0.211053 0.0561509 0)
(-0.228989 0.0538442 0)
(-0.245631 0.0500742 0)
(-0.260572 0.0448117 0)
(-0.27343 0.0380863 0)
(-0.28386 0.0299881 0)
(-0.291563 0.0206681 0)
(-0.296289 0.0103351 0)
(-0.29785 -0.000748246 0)
(-0.296122 -0.0122715 0)
(-0.291047 -0.0238866 0)
(-0.282642 -0.0352186 0)
(-0.271004 -0.0458768 0)
(-0.256313 -0.0554695 0)
(-0.238842 -0.063621 0)
(-0.218956 -0.0699909 0)
(-0.197107 -0.074296 0)
(-0.173835 -0.0763305 0)
(-0.149745 -0.0759859 0)
(-0.125494 -0.0732657 0)
(-0.101759 -0.0682934 0)
(-0.079207 -0.0613122 0)
(-0.0584569 -0.0526748 0)
(-0.0400449 -0.0428235 0)
(-0.0243917 -0.0322649 0)
(-0.0117761 -0.0215397 0)
(-0.0023173 -0.0111957 0)
(0.00403431 -0.00176781 0)
(0.00749815 0.00622732 0)
(0.00845407 0.0122871 0)
(0.00743395 0.0158978 0)
(0.00512473 0.0165098 0)
(0.00243834 0.0135103 0)
(0.00031142 0.00618973 0)
(-0.000218391 0.00139394 0)
(-0.00323462 0.00690385 0)
(-0.00896151 0.0137462 0)
(-0.0170765 0.0209547 0)
(-0.0272038 0.0280769 0)
(-0.0391395 0.0349445 0)
(-0.0527611 0.0415273 0)
(-0.0679845 0.0478368 0)
(-0.084735 0.0538666 0)
(-0.102918 0.059561 0)
(-0.122395 0.0648062 0)
(-0.142977 0.0694352 0)
(-0.164409 0.0732414 0)
(-0.186382 0.0759967 0)
(-0.208536 0.0774705 0)
(-0.230473 0.0774491 0)
(-0.251771 0.0757524 0)
(-0.272001 0.0722489 0)
(-0.29074 0.0668659 0)
(-0.307586 0.0595965 0)
(-0.322165 0.0505033 0)
(-0.334138 0.0397177 0)
(-0.343212 0.0274383 0)
(-0.349134 0.0139259 0)
(-0.3517 -0.000500707 0)
(-0.350762 -0.0154707 0)
(-0.346225 -0.0305695 0)
(-0.338059 -0.0453488 0)
(-0.326308 -0.0593369 0)
(-0.311098 -0.0720535 0)
(-0.292651 -0.0830284 0)
(-0.271289 -0.0918236 0)
(-0.24744 -0.09806 0)
(-0.221638 -0.101444 0)
(-0.194512 -0.101796 0)
(-0.166771 -0.0990716 0)
(-0.13917 -0.0933779 0)
(-0.112482 -0.0849791 0)
(-0.0874479 -0.0742884 0)
(-0.0647339 -0.0618471 0)
(-0.0448904 -0.0482941 0)
(-0.0283146 -0.0343287 0)
(-0.0152248 -0.0206728 0)
(-0.00564642 -0.00804227 0)
(0.00059048 0.00286964 0)
(0.00384288 0.0113906 0)
(0.0046425 0.0168471 0)
(0.00369241 0.0185336 0)
(0.00191579 0.015673 0)
(0.000268542 0.00735931 0)
(-0.000334585 0.00330144 0)
(-0.00442503 0.0120798 0)
(-0.0118818 0.0216705 0)
(-0.0221584 0.0312005 0)
(-0.0346872 0.0403395 0)
(-0.0491752 0.049028 0)
(-0.0654565 0.0573096 0)
(-0.0834243 0.065229 0)
(-0.102986 0.0727747 0)
(-0.124026 0.0798568 0)
(-0.14638 0.0863093 0)
(-0.169821 0.0919044 0)
(-0.194062 0.0963756 0)
(-0.218759 0.0994419 0)
(-0.243522 0.100832 0)
(-0.267937 0.100307 0)
(-0.291574 0.0976757 0)
(-0.314005 0.0928117 0)
(-0.334817 0.0856592 0)
(-0.353622 0.0762375 0)
(-0.370059 0.0646417 0)
(-0.383798 0.05104 0)
(-0.394544 0.0356696 0)
(-0.402035 0.0188324 0)
(-0.406044 0.000890586 0)
(-0.406386 -0.0177371 0)
(-0.402917 -0.0365815 0)
(-0.395548 -0.0551292 0)
(-0.384253 -0.0728324 0)
(-0.369087 -0.0891221 0)
(-0.350197 -0.103427 0)
(-0.327839 -0.1152 0)
(-0.30239 -0.123945 0)
(-0.274354 -0.129256 0)
(-0.244364 -0.13085 0)
(-0.213164 -0.128602 0)
(-0.181588 -0.122574 0)
(-0.150516 -0.113023 0)
(-0.12083 -0.100408 0)
(-0.0933542 -0.0853617 0)
(-0.0687991 -0.0686622 0)
(-0.0477129 -0.0511825 0)
(-0.0304433 -0.0338422 0)
(-0.0171164 -0.0175649 0)
(-0.00763017 -0.00324956 0)
(-0.00166363 0.00823592 0)
(0.0013043 0.0160396 0)
(0.00198548 0.0192876 0)
(0.00130301 0.0170423 0)
(0.000223045 0.00823583 0)
(-0.000456121 0.00583648 0)
(-0.00565275 0.0187209 0)
(-0.0148727 0.0315821 0)
(-0.0273314 0.0437458 0)
(-0.0422608 0.0550876 0)
(-0.0592757 0.0657144 0)
(-0.0781647 0.0757769 0)
(-0.098796 0.0853663 0)
(-0.121057 0.0944675 0)
(-0.144811 0.102953 0)
(-0.169865 0.110598 0)
(-0.195967 0.117113 0)
(-0.222799 0.122173 0)
(-0.249997 0.12545 0)
(-0.277159 0.126641 0)
(-0.303865 0.125492 0)
(-0.329693 0.121812 0)
(-0.354228 0.115485 0)
(-0.377076 0.106477 0)
(-0.397863 0.0948315 0)
(-0.416244 0.0806727 0)
(-0.431896 0.0641967 0)
(-0.444521 0.0456695 0)
(-0.453845 0.0254217 0)
(-0.459618 0.00384649 0)
(-0.461618 -0.0186025 0)
(-0.459655 -0.0414135 0)
(-0.453576 -0.0640195 0)
(-0.443282 -0.085805 0)
(-0.428742 -0.106117 0)
(-0.410009 -0.124283 0)
(-0.387247 -0.139637 0)
(-0.360748 -0.151549 0)
(-0.330952 -0.159472 0)
(-0.298455 -0.162986 0)
(-0.264012 -0.161845 0)
(-0.228509 -0.156019 0)
(-0.192936 -0.145725 0)
(-0.158323 -0.131434 0)
(-0.125679 -0.113857 0)
(-0.0959118 -0.0939114 0)
(-0.069764 -0.0726587 0)
(-0.0477558 -0.0512442 0)
(-0.0301506 -0.030833 0)
(-0.0169428 -0.0125657 0)
(-0.00786649 0.00246255 0)
(-0.0024196 0.0131948 0)
(0.000112193 0.0185771 0)
(0.000651668 0.0175117 0)
(0.00018152 0.00879277 0)
(-0.000579113 0.00901068 0)
(-0.00687881 0.0268378 0)
(-0.0178399 0.0434763 0)
(-0.0324339 0.0585641 0)
(-0.0496915 0.0722708 0)
(-0.0691358 0.0849281 0)
(-0.0905099 0.0968266 0)
(-0.113655 0.108118 0)
(-0.138438 0.118785 0)
(-0.1647 0.128659 0)
(-0.192226 0.137458 0)
(-0.220738 0.144829 0)
(-0.249902 0.150395 0)
(-0.279342 0.15379 0)
(-0.308655 0.154687 0)
(-0.337427 0.152827 0)
(-0.365251 0.148024 0)
(-0.391731 0.14018 0)
(-0.416491 0.129279 0)
(-0.439175 0.115389 0)
(-0.45945 0.0986562 0)
(-0.477003 0.0792971 0)
(-0.491539 0.0575977 0)
(-0.50278 0.0339084 0)
(-0.510463 0.00864258 0)
(-0.514342 -0.0177232 0)
(-0.514196 -0.0446478 0)
(-0.509818 -0.0715269 0)
(-0.501037 -0.0976922 0)
(-0.487731 -0.12242 0)
(-0.469846 -0.144945 0)
(-0.447426 -0.164481 0)
(-0.420638 -0.180258 0)
(-0.38981 -0.191562 0)
(-0.355453 -0.197799 0)
(-0.318275 -0.198553 0)
(-0.27918 -0.193649 0)
(-0.239235 -0.183202 0)
(-0.199619 -0.167652 0)
(-0.161539 -0.147755 0)
(-0.126143 -0.124555 0)
(-0.0944178 -0.0993131 0)
(-0.0671147 -0.0734297 0)
(-0.0446877 -0.048354 0)
(-0.0272707 -0.025514 0)
(-0.0146821 -0.00627564 0)
(-0.00645453 0.00806356 0)
(-0.00187376 0.0162482 0)
(-1.1882e-05 0.0170136 0)
(0.000147185 0.00902436 0)
(-0.00069886 0.0128147 0)
(-0.00806103 0.0363939 0)
(-0.0206853 0.0572868 0)
(-0.0373027 0.0755613 0)
(-0.0567486 0.091769 0)
(-0.0784576 0.106524 0)
(-0.102128 0.120289 0)
(-0.127573 0.133287 0)
(-0.154639 0.145504 0)
(-0.183145 0.15673 0)
(-0.212855 0.166624 0)
(-0.243476 0.174776 0)
(-0.274662 0.180762 0)
(-0.306032 0.184185 0)
(-0.33719 0.184708 0)
(-0.367733 0.182069 0)
(-0.39727 0.176095 0)
(-0.425422 0.166702 0)
(-0.451831 0.153896 0)
(-0.476159 0.137764 0)
(-0.49809 0.118471 0)
(-0.517326 0.0962519 0)
(-0.533588 0.0714089 0)
(-0.546613 0.0443064 0)
(-0.556147 0.0153704 0)
(-0.561944 -0.0149109 0)
(-0.563771 -0.0459831 0)
(-0.561391 -0.0772245 0)
(-0.554574 -0.107938 0)
(-0.543112 -0.137352 0)
(-0.526834 -0.164631 0)
(-0.505642 -0.188884 0)
(-0.479542 -0.2092 0)
(-0.448696 -0.224688 0)
(-0.413461 -0.234546 0)
(-0.374434 -0.238136 0)
(-0.332461 -0.235071 0)
(-0.288637 -0.22529 0)
(-0.244253 -0.209127 0)
(-0.200719 -0.187323 0)
(-0.159445 -0.161016 0)
(-0.121724 -0.131665 0)
(-0.0886067 -0.100951 0)
(-0.0608103 -0.0706537 0)
(-0.0386716 -0.0425513 0)
(-0.0221397 -0.0183392 0)
(-0.0108084 0.000394848 0)
(-0.00397088 0.0121566 0)
(-0.000685084 0.0154943 0)
(0.000120408 0.00893227 0)
(-0.000810048 0.0172164 0)
(-0.00915507 0.047304 0)
(-0.0233094 0.0728871 0)
(-0.0417763 0.0945789 0)
(-0.0632077 0.113397 0)
(-0.0869552 0.130294 0)
(-0.112672 0.145931 0)
(-0.140145 0.160617 0)
(-0.169197 0.174344 0)
(-0.199626 0.186862 0)
(-0.23118 0.197773 0)
(-0.263552 0.206618 0)
(-0.29639 0.212932 0)
(-0.329315 0.216296 0)
(-0.361935 0.216365 0)
(-0.393859 0.212882 0)
(-0.424708 0.205685 0)
(-0.45412 0.194711 0)
(-0.481751 0.179983 0)
(-0.507286 0.161612 0)
(-0.530431 0.139782 0)
(-0.550919 0.11475 0)
(-0.568508 0.0868349 0)
(-0.58297 0.056414 0)
(-0.59409 0.0239212 0)
(-0.60165 -0.0101543 0)
(-0.605435 -0.0452622 0)
(-0.605203 -0.080788 0)
(-0.60069 -0.116036 0)
(-0.591616 -0.150223 0)
(-0.577703 -0.182477 0)
(-0.558695 -0.211833 0)
(-0.534413 -0.237259 0)
(-0.504802 -0.257693 0)
(-0.469998 -0.272106 0)
(-0.430397 -0.279591 0)
(-0.3867 -0.279474 0)
(-0.339937 -0.271431 0)
(-0.291446 -0.255582 0)
(-0.2428 -0.232566 0)
(-0.195683 -0.203543 0)
(-0.151734 -0.170138 0)
(-0.11238 -0.134325 0)
(-0.0786957 -0.0982687 0)
(-0.0513065 -0.0641657 0)
(-0.0303617 -0.0341233 0)
(-0.0155607 -0.010092 0)
(-0.00622238 0.00613778 0)
(-0.00138535 0.0128883 0)
(9.91659e-05 0.00851386 0)
(-0.000907078 0.0221597 0)
(-0.0101164 0.0594347 0)
(-0.0256149 0.090093 0)
(-0.0456997 0.115398 0)
(-0.0688573 0.136912 0)
(-0.0943618 0.155971 0)
(-0.121823 0.173463 0)
(-0.150997 0.189796 0)
(-0.181685 0.204969 0)
(-0.213666 0.218696 0)
(-0.246671 0.230531 0)
(-0.280382 0.239964 0)
(-0.314443 0.246501 0)
(-0.348475 0.249704 0)
(-0.38209 0.249225 0)
(-0.414904 0.244813 0)
(-0.446546 0.236323 0)
(-0.476667 0.22371 0)
(-0.504943 0.207024 0)
(-0.531083 0.186402 0)
(-0.554831 0.162058 0)
(-0.575966 0.134278 0)
(-0.594303 0.103404 0)
(-0.609678 0.0698289 0)
(-0.621939 0.0339913 0)
(-0.630927 -0.00362811 0)
(-0.636471 -0.0425001 0)
(-0.63836 -0.0820433 0)
(-0.636323 -0.121599 0)
(-0.63004 -0.160415 0)
(-0.61914 -0.197627 0)
(-0.603227 -0.232247 0)
(-0.581922 -0.263165 0)
(-0.554922 -0.289171 0)
(-0.522086 -0.309013 0)
(-0.483522 -0.321491 0)
(-0.439675 -0.325579 0)
(-0.391394 -0.320584 0)
(-0.339954 -0.306294 0)
(-0.287008 -0.283107 0)
(-0.234476 -0.252092 0)
(-0.184364 -0.214967 0)
(-0.138542 -0.173979 0)
(-0.0985402 -0.131713 0)
(-0.0653867 -0.0908688 0)
(-0.0395287 -0.0540685 0)
(-0.0208408 -0.0237269 0)
(-0.00870398 -0.00201457 0)
(-0.00214471 0.00910018 0)
(7.97415e-05 0.00775301 0)
(-0.000984477 0.0275651 0)
(-0.0109026 0.0726067 0)
(-0.0275105 0.108667 0)
(-0.0489303 0.137748 0)
(-0.073505 0.162017 0)
(-0.100438 0.183237 0)
(-0.129294 0.202547 0)
(-0.1598 0.220461 0)
(-0.19173 0.236993 0)
(-0.224845 0.251827 0)
(-0.258862 0.264467 0)
(-0.293451 0.274366 0)
(-0.32825 0.280998 0)
(-0.362877 0.283914 0)
(-0.396944 0.282763 0)
(-0.43007 0.277306 0)
(-0.461891 0.267414 0)
(-0.492069 0.253071 0)
(-0.520304 0.23436 0)
(-0.546341 0.211457 0)
(-0.569974 0.184621 0)
(-0.591046 0.154174 0)
(-0.609447 0.120494 0)
(-0.625096 0.0839939 0)
(-0.637927 0.0451147 0)
(-0.647864 0.0043211 0)
(-0.654804 -0.0378949 0)
(-0.658598 -0.0810064 0)
(-0.659004 -0.124428 0)
(-0.655695 -0.167481 0)
(-0.648246 -0.209366 0)
(-0.636149 -0.249129 0)
(-0.618846 -0.285642 0)
(-0.595786 -0.317606 0)
(-0.566513 -0.343581 0)
(-0.530781 -0.362074 0)
(-0.488673 -0.371669 0)
(-0.440724 -0.371212 0)
(-0.387995 -0.36002 0)
(-0.332089 -0.338085 0)
(-0.275067 -0.306217 0)
(-0.219266 -0.26609 0)
(-0.167039 -0.220154 0)
(-0.120467 -0.171418 0)
(-0.0811076 -0.123165 0)
(-0.0498342 -0.0786523 0)
(-0.0267989 -0.0408945 0)
(-0.0115083 -0.0125627 0)
(-0.00300329 0.00399154 0)
(5.73421e-05 0.00661405 0)
(-0.00103733 0.0333311 0)
(-0.011476 0.0865989 0)
(-0.0289159 0.128324 0)
(-0.0513434 0.161309 0)
(-0.0769849 0.188372 0)
(-0.104979 0.211734 0)
(-0.134845 0.232803 0)
(-0.166275 0.252211 0)
(-0.199019 0.269993 0)
(-0.232817 0.285805 0)
(-0.26737 0.299111 0)
(-0.302336 0.309325 0)
(-0.337345 0.315898 0)
(-0.372009 0.318368 0)
(-0.405935 0.316386 0)
(-0.438744 0.309727 0)
(-0.470078 0.298288 0)
(-0.499616 0.282089 0)
(-0.527089 0.261261 0)
(-0.552288 0.236035 0)
(-0.575069 0.206727 0)
(-0.595352 0.173713 0)
(-0.613114 0.137414 0)
(-0.62837 0.0982674 0)
(-0.641152 0.0567194 0)
(-0.651476 0.0132122 0)
(-0.659334 -0.0318112 0)
(-0.664653 -0.0778963 0)
(-0.667254 -0.124558 0)
(-0.666843 -0.171232 0)
(-0.662988 -0.217235 0)
(-0.655121 -0.261714 0)
(-0.64255 -0.303599 0)
(-0.624508 -0.341577 0)
(-0.600236 -0.374094 0)
(-0.569099 -0.399408 0)
(-0.530739 -0.415714 0)
(-0.485245 -0.421338 0)
(-0.433305 -0.415 0)
(-0.376287 -0.396098 0)
(-0.316237 -0.364969 0)
(-0.255721 -0.323035 0)
(-0.197556 -0.272803 0)
(-0.144437 -0.217654 0)
(-0.0985788 -0.161498 0)
(-0.061436 -0.108361 0)
(-0.0335758 -0.062025 0)
(-0.0147281 -0.0258239 0)
(-0.0040027 -0.00262228 0)
(2.68058e-05 0.00503965 0)
(-0.00106166 0.0393373 0)
(-0.0118054 0.101155 0)
(-0.0297653 0.148741 0)
(-0.0528379 0.185724 0)
(-0.0791637 0.215601 0)
(-0.107822 0.241069 0)
(-0.138285 0.26382 0)
(-0.170209 0.284613 0)
(-0.203315 0.303513 0)
(-0.237322 0.320153 0)
(-0.271913 0.33396 0)
(-0.306735 0.344313 0)
(-0.341406 0.350642 0)
(-0.37553 0.352474 0)
(-0.40871 0.349469 0)
(-0.440568 0.341418 0)
(-0.470757 0.328257 0)
(-0.498982 0.310055 0)
(-0.525013 0.287005 0)
(-0.548696 0.259412 0)
(-0.569959 0.227662 0)
(-0.588805 0.192199 0)
(-0.605301 0.153492 0)
(-0.619559 0.112011 0)
(-0.631708 0.0682067 0)
(-0.641863 0.0224961 0)
(-0.650109 -0.0247332 0)
(-0.656464 -0.0731098 0)
(-0.660837 -0.122266 0)
(-0.662997 -0.171779 0)
(-0.662558 -0.221124 0)
(-0.65895 -0.269609 0)
(-0.651422 -0.316303 0)
(-0.639059 -0.359974 0)
(-0.620849 -0.399053 0)
(-0.595787 -0.431641 0)
(-0.563047 -0.455597 0)
(-0.522177 -0.468726 0)
(-0.473329 -0.469061 0)
(-0.41744 -0.455235 0)
(-0.356324 -0.42686 0)
(-0.2926 -0.384838 0)
(-0.229444 -0.331489 0)
(-0.170174 -0.270426 0)
(-0.117765 -0.206176 0)
(-0.0744137 -0.143642 0)
(-0.0412752 -0.087569 0)
(-0.0184412 -0.0421602 0)
(-0.00518023 -0.0109693 0)
(-1.66569e-05 0.00295182 0)
(-0.0010548 0.0454484 0)
(-0.0118687 0.11599 0)
(-0.030011 0.169561 0)
(-0.0533408 0.210609 0)
(-0.0799458 0.243302 0)
(-0.108853 0.270827 0)
(-0.139485 0.295166 0)
(-0.171458 0.317218 0)
(-0.204465 0.337082 0)
(-0.238199 0.354378 0)
(-0.272327 0.368497 0)
(-0.306483 0.37879 0)
(-0.340275 0.384664 0)
(-0.373298 0.385644 0)
(-0.405155 0.381398 0)
(-0.435475 0.371749 0)
(-0.46393 0.35668 0)
(-0.490257 0.336326 0)
(-0.514277 0.310961 0)
(-0.535899 0.280972 0)
(-0.555125 0.24683 0)
(-0.572039 0.209054 0)
(-0.586794 0.168169 0)
(-0.599589 0.124679 0)
(-0.61064 0.0790371 0)
(-0.62015 0.0316374 0)
(-0.628288 -0.0171896 0)
(-0.635162 -0.0671578 0)
(-0.640777 -0.11802 0)
(-0.644991 -0.169509 0)
(-0.647502 -0.221285 0)
(-0.647804 -0.272858 0)
(-0.645165 -0.323506 0)
(-0.638617 -0.372175 0)
(-0.626988 -0.4174 0)
(-0.608983 -0.457256 0)
(-0.583332 -0.489383 0)
(-0.549015 -0.511127 0)
(-0.505534 -0.519819 0)
(-0.453199 -0.513195 0)
(-0.393348 -0.489905 0)
(-0.328404 -0.450009 0)
(-0.261713 -0.395309 0)
(-0.197133 -0.329391 0)
(-0.138444 -0.257289 0)
(-0.0887355 -0.184846 0)
(-0.0499434 -0.117959 0)
(-0.0227003 -0.0619566 0)
(-0.00656474 -0.0213096 0)
(-7.70602e-05 0.000255109 0)
(-0.00101565 0.05152 0)
(-0.0116541 0.130801 0)
(-0.0296259 0.19041 0)
(-0.0528099 0.235557 0)
(-0.0792771 0.271059 0)
(-0.108008 0.300579 0)
(-0.138377 0.326401 0)
(-0.169956 0.349569 0)
(-0.202404 0.370229 0)
(-0.235393 0.38799 0)
(-0.268573 0.402218 0)
(-0.301565 0.412234 0)
(-0.333971 0.41743 0)
(-0.365383 0.417331 0)
(-0.395409 0.411624 0)
(-0.423694 0.400174 0)
(-0.449939 0.383026 0)
(-0.473926 0.360395 0)
(-0.495529 0.332646 0)
(-0.514725 0.300265 0)
(-0.531588 0.263814 0)
(-0.546276 0.223886 0)
(-0.559015 0.181065 0)
(-0.570073 0.135884 0)
(-0.579734 0.0888047 0)
(-0.588265 0.0401943 0)
(-0.595902 -0.00966868 0)
(-0.602831 -0.060579 0)
(-0.609144 -0.112402 0)
(-0.614797 -0.16502 0)
(-0.619599 -0.21828 0)
(-0.623156 -0.27192 0)
(-0.624831 -0.325471 0)
(-0.623705 -0.37814 0)
(-0.618569 -0.428686 0)
(-0.607956 -0.475308 0)
(-0.590257 -0.515592 0)
(-0.563922 -0.546571 0)
(-0.527762 -0.564945 0)
(-0.481319 -0.567509 0)
(-0.425215 -0.551761 0)
(-0.361389 -0.516586 0)
(-0.293083 -0.46287 0)
(-0.224504 -0.393787 0)
(-0.160195 -0.314634 0)
(-0.104241 -0.232155 0)
(-0.0595559 -0.153565 0)
(-0.0275262 -0.0855942 0)
(-0.0081749 -0.0339207 0)
(-0.000157702 -0.00315879 0)
(-0.000944733 0.057404 0)
(-0.0111607 0.145278 0)
(-0.0286049 0.210903 0)
(-0.0512359 0.260157 0)
(-0.0771463 0.298448 0)
(-0.10528 0.329899 0)
(-0.134959 0.357089 0)
(-0.16571 0.381221 0)
(-0.197159 0.402496 0)
(-0.228956 0.420522 0)
(-0.260736 0.434645 0)
(-0.292113 0.444163 0)
(-0.322686 0.448458 0)
(-0.352054 0.447063 0)
(-0.379841 0.439693 0)
(-0.405716 0.426268 0)
(-0.429421 0.406908 0)
(-0.450789 0.381919 0)
(-0.469754 0.351771 0)
(-0.486359 0.317049 0)
(-0.500742 0.278408 0)
(-0.513121 0.236515 0)
(-0.523778 0.192005 0)
(-0.533027 0.14544 0)
(-0.541195 0.097281 0)
(-0.548588 0.0478744 0)
(-0.55548 -0.00254814 0)
(-0.562114 -0.053853 0)
(-0.56865 -0.105998 0)
(-0.575136 -0.158998 0)
(-0.581496 -0.21287 0)
(-0.587478 -0.267572 0)
(-0.592596 -0.322906 0)
(-0.59607 -0.378392 0)
(-0.596776 -0.433112 0)
(-0.593226 -0.485541 0)
(-0.583623 -0.533407 0)
(-0.566008 -0.573632 0)
(-0.538554 -0.602459 0)
(-0.49997 -0.61581 0)
(-0.449984 -0.609934 0)
(-0.389756 -0.582267 0)
(-0.322089 -0.532333 0)
(-0.251255 -0.462409 0)
(-0.182405 -0.377651 0)
(-0.120637 -0.285523 0)
(-0.0700121 -0.19464 0)
(-0.0329048 -0.113417 0)
(-0.0100185 -0.0490806 0)
(-0.000261485 -0.00740544 0)
(-0.00084427 0.0629551 0)
(-0.010399 0.159113 0)
(-0.0269653 0.230657 0)
(-0.0486427 0.283998 0)
(-0.0735855 0.325054 0)
(-0.100711 0.358366 0)
(-0.129291 0.386808 0)
(-0.158805 0.411748 0)
(-0.188845 0.433453 0)
(-0.219041 0.451544 0)
(-0.249019 0.465352 0)
(-0.278391 0.474161 0)
(-0.306763 0.477351 0)
(-0.333751 0.474469 0)
(-0.359004 0.465275 0)
(-0.382229 0.449751 0)
(-0.403217 0.428103 0)
(-0.421857 0.40074 0)
(-0.438143 0.368237 0)
(-0.452176 0.331281 0)
(-0.464149 0.290612 0)
(-0.474326 0.246965 0)
(-0.483019 0.201018 0)
(-0.490568 0.153351 0)
(-0.497313 0.104422 0)
(-0.503574 0.0545557 0)
(-0.509638 0.00394505 0)
(-0.515775 -0.0473361 0)
(-0.522189 -0.0993158 0)
(-0.528997 -0.152109 0)
(-0.536229 -0.205872 0)
(-0.543777 -0.260754 0)
(-0.551334 -0.316812 0)
(-0.558323 -0.373893 0)
(-0.563807 -0.431464 0)
(-0.566426 -0.4884 0)
(-0.56437 -0.542761 0)
(-0.555457 -0.591608 0)
(-0.537359 -0.630978 0)
(-0.508 -0.656112 0)
(-0.466118 -0.662051 0)
(-0.41186 -0.644602 0)
(-0.347239 -0.601526 0)
(-0.276227 -0.533637 0)
(-0.204309 -0.445397 0)
(-0.137508 -0.344623 0)
(-0.081136 -0.241278 0)
(-0.0387859 -0.145702 0)
(-0.0120921 -0.0670507 0)
(-0.000390957 -0.0126021 0)
(-0.000717994 0.0680369 0)
(-0.00938998 0.172011 0)
(-0.0247461 0.249299 0)
(-0.045086 0.306682 0)
(-0.0686678 0.350472 0)
(-0.094396 0.385581 0)
(-0.121493 0.415162 0)
(-0.149394 0.440756 0)
(-0.177656 0.462712 0)
(-0.205893 0.480674 0)
(-0.233727 0.493973 0)
(-0.260777 0.501887 0)
(-0.286667 0.503801 0)
(-0.31104 0.499291 0)
(-0.333582 0.488166 0)
(-0.354048 0.470484 0)
(-0.372282 0.446545 0)
(-0.38823 0.416864 0)
(-0.401946 0.382118 0)
(-0.413577 0.34309 0)
(-0.423357 0.300598 0)
(-0.431576 0.255431 0)
(-0.438559 0.208296 0)
(-0.444646 0.159783 0)
(-0.45017 0.110341 0)
(-0.45544 0.0602727 0)
(-0.460731 0.00973803 0)
(-0.466313 -0.041233 0)
(-0.472406 -0.0927175 0)
(-0.479176 -0.144897 0)
(-0.48673 -0.198027 0)
(-0.495086 -0.252401 0)
(-0.504117 -0.30829 0)
(-0.513469 -0.365844 0)
(-0.522464 -0.424929 0)
(-0.529982 -0.484897 0)
(-0.534377 -0.544296 0)
(-0.533452 -0.600574 0)
(-0.524587 -0.649867 0)
(-0.505075 -0.687037 0)
(-0.472689 -0.706112 0)
(-0.426418 -0.701244 0)
(-0.367179 -0.668121 0)
(-0.298241 -0.605533 0)
(-0.225051 -0.516563 0)
(-0.15434 -0.40882 0)
(-0.0926832 -0.29337 0)
(-0.0450854 -0.182622 0)
(-0.0143813 -0.0880578 0)
(-0.000548072 -0.0188626 0)
(-0.000570917 0.0725274 0)
(-0.00816465 0.183698 0)
(-0.0220062 0.266483 0)
(-0.0406513 0.327832 0)
(-0.0625043 0.374323 0)
(-0.0864733 0.411171 0)
(-0.111739 0.441788 0)
(-0.137689 0.467893 0)
(-0.163852 0.489933 0)
(-0.189828 0.507594 0)
(-0.215241 0.520216 0)
(-0.23973 0.527083 0)
(-0.262943 0.527599 0)
(-0.284563 0.521375 0)
(-0.304322 0.508281 0)
(-0.32203 0.488457 0)
(-0.337588 0.462301 0)
(-0.350996 0.430428 0)
(-0.362355 0.393615 0)
(-0.371853 0.35273 0)
(-0.379746 0.308652 0)
(-0.386333 0.262212 0)
(-0.391933 0.214134 0)
(-0.39687 0.165006 0)
(-0.401448 0.115261 0)
(-0.40595 0.0651781 0)
(-0.41062 0.0148901 0)
(-0.415704 -0.035602 0)
(-0.421422 -0.0864054 0)
(-0.427956 -0.137739 0)
(-0.435462 -0.189912 0)
(-0.444054 -0.243312 0)
(-0.453756 -0.298368 0)
(-0.464431 -0.355478 0)
(-0.475675 -0.414873 0)
(-0.486684 -0.476399 0)
(-0.496107 -0.539196 0)
(-0.501934 -0.601301 0)
(-0.501498 -0.659266 0)
(-0.491692 -0.707948 0)
(-0.469474 -0.740697 0)
(-0.432656 -0.750171 0)
(-0.380846 -0.729841 0)
(-0.316223 -0.675974 0)
(-0.243759 -0.589536 0)
(-0.170561 -0.47717 0)
(-0.104355 -0.35058 0)
(-0.0516875 -0.224228 0)
(-0.0168606 -0.112278 0)
(-0.000733996 -0.0262917 0)
(-0.000408997 0.0763243 0)
(-0.00676198 0.193936 0)
(-0.0188219 0.281891 0)
(-0.0354501 0.347102 0)
(-0.0552397 0.396259 0)
(-0.0771221 0.434798 0)
(-0.100244 0.466362 0)
(-0.123952 0.492853 0)
(-0.147746 0.514833 0)
(-0.171217 0.532045 0)
(-0.194 0.543856 0)
(-0.215758 0.549572 0)
(-0.236179 0.548621 0)
(-0.254991 0.540663 0)
(-0.271982 0.525634 0)
(-0.287017 0.503759 0)
(-0.300053 0.475529 0)
(-0.311141 0.441657 0)
(-0.320418 0.403008 0)
(-0.328098 0.360518 0)
(-0.334443 0.315116 0)
(-0.339747 0.267658 0)
(-0.34431 0.218872 0)
(-0.348421 0.169334 0)
(-0.352349 0.119455 0)
(-0.356334 0.0694902 0)
(-0.360583 0.0195493 0)
(-0.365305 -0.0303853 0)
(-0.370699 -0.0804346 0)
(-0.376943 -0.130829 0)
(-0.384215 -0.181897 0)
(-0.392686 -0.23407 0)
(-0.402492 -0.287871 0)
(-0.413675 -0.343874 0)
(-0.426087 -0.402612 0)
(-0.439257 -0.464385 0)
(-0.452205 -0.52895 0)
(-0.463265 -0.595072 0)
(-0.469959 -0.659991 0)
(-0.469057 -0.718956 0)
(-0.456947 -0.765083 0)
(-0.430384 -0.789878 0)
(-0.38758 -0.784656 0)
(-0.329313 -0.742823 0)
(-0.259631 -0.662496 0)
(-0.185586 -0.548462 0)
(-0.115818 -0.412344 0)
(-0.058452 -0.270422 0)
(-0.0194944 -0.139824 0)
(-0.000948917 -0.0349806 0)
(-0.00023875 0.0793483 0)
(-0.0052272 0.202525 0)
(-0.0152837 0.295249 0)
(-0.0296163 0.364182 0)
(-0.0470469 0.415966 0)
(-0.0665541 0.456161 0)
(-0.0872625 0.488605 0)
(-0.108483 0.515381 0)
(-0.129689 0.537182 0)
(-0.150468 0.55383 0)
(-0.170472 0.564739 0)
(-0.189395 0.569246 0)
(-0.206972 0.56682 0)
(-0.222986 0.557173 0)
(-0.237281 0.54031 0)
(-0.249781 0.51654 0)
(-0.260492 0.486444 0)
(-0.269506 0.450819 0)
(-0.276989 0.410604 0)
(-0.283164 0.366789 0)
(-0.288289 0.320336 0)
(-0.292637 0.272112 0)
(-0.296477 0.222839 0)
(-0.300058 0.173072 0)
(-0.303606 0.123197 0)
(-0.307316 0.0734441 0)
(-0.311351 0.0239034 0)
(-0.315876 -0.0254539 0)
(-0.321063 -0.0747506 0)
(-0.327072 -0.124211 0)
(-0.334074 -0.174155 0)
(-0.342268 -0.225017 0)
(-0.351858 -0.277357 0)
(-0.363012 -0.331852 0)
(-0.375793 -0.389247 0)
(-0.390029 -0.45022 0)
(-0.405134 -0.515104 0)
(-0.419873 -0.583439 0)
(-0.432142 -0.653345 0)
(-0.438864 -0.720824 0)
(-0.436161 -0.779255 0)
(-0.419976 -0.819484 0)
(-0.387175 -0.83096 0)
(-0.336951 -0.804099 0)
(-0.272011 -0.733552 0)
(-0.198871 -0.621277 0)
(-0.126732 -0.477878 0)
(-0.0652235 -0.32096 0)
(-0.022239 -0.170731 0)
(-0.0011919 -0.0450023 0)