/*--------------------------------*- C++ -*----------------------------------*\
  =========                 |
  \\      /  F ield         | OpenFOAM: The Open Source CFD Toolbox
   \\    /   O peration     | Website:  https://openfoam.org
    \\  /    A nd           | Version:  7
     \\/     M anipulation  |
\*---------------------------------------------------------------------------*/
FoamFile
{
    version     2.0;
    format      ascii;
    class       volScalarField;
    location    "578";
    object      p;
}
// * * * * * * * * * * * * * * * * * * * * * * * * * * * * * * * * * * * * * //

dimensions      [0 2 -2 0 0 0 0];

internalField   nonuniform List<scalar> 
2500
(
7.62423e-07
-8.53519e-05
-0.000402349
-0.000947728
-0.00165779
-0.00248428
-0.00339572
-0.00437156
-0.00539767
-0.00646218
-0.0075522
-0.00865153
-0.00973932
-0.0107896
-0.0117716
-0.0126505
-0.0133887
-0.013948
-0.0142923
-0.01439
-0.0142178
-0.0137642
-0.0130326
-0.0120439
-0.0108383
-0.00947536
-0.00803239
-0.00660129
-0.00528323
-0.00418156
-0.00339369
-0.00300264
-0.00306926
-0.00362594
-0.00467293
-0.00617763
-0.00807704
-0.0102836
-0.0126931
-0.0151933
-0.0176727
-0.0200278
-0.0221691
-0.0240238
-0.0255354
-0.0266644
-0.0273878
-0.0277015
-0.027641
-0.0273957
8.59891e-05
-6.49646e-06
-0.000296271
-0.000784223
-0.00141841
-0.00216022
-0.00298449
-0.00387428
-0.0048173
-0.0058029
-0.0068194
-0.00785225
-0.00888288
-0.00988818
-0.0108406
-0.0117087
-0.0124582
-0.0130538
-0.0134613
-0.0136501
-0.0135966
-0.0132875
-0.0127229
-0.0119191
-0.0109104
-0.00974977
-0.00850705
-0.00726688
-0.00612333
-0.00517328
-0.00450857
-0.00420782
-0.00432866
-0.00490167
-0.00592663
-0.00737193
-0.00917726
-0.011259
-0.013518
-0.0158491
-0.018149
-0.0203235
-0.0222929
-0.0239945
-0.0253824
-0.0264267
-0.0271121
-0.0274325
-0.0273952
-0.0271492
0.000414451
0.000272444
-3.12364e-05
-0.000490753
-0.0010689
-0.00173909
-0.00248451
-0.00329404
-0.0041595
-0.0050733
-0.00602649
-0.00700725
-0.00799992
-0.00898447
-0.00993637
-0.0108269
-0.011624
-0.0122934
-0.0128008
-0.0131143
-0.0132073
-0.0130625
-0.0126746
-0.0120539
-0.0112283
-0.0102448
-0.00916751
-0.00807635
-0.0070616
-0.00621749
-0.00563426
-0.00538983
-0.00554178
-0.006121
-0.00712771
-0.00853086
-0.0102708
-0.012265
-0.0144163
-0.0166225
-0.018785
-0.0208157
-0.0226428
-0.0242129
-0.0254903
-0.0264549
-0.0270981
-0.0274097
-0.0273664
-0.027092
0.000996109
0.000760389
0.000396429
-7.3488e-05
-0.00062994
-0.00125925
-0.0019538
-0.00270996
-0.00352556
-0.00439791
-0.00532219
-0.00629021
-0.00728955
-0.00830292
-0.00930778
-0.0102764
-0.0111764
-0.0119719
-0.0126251
-0.0130994
-0.0133625
-0.0133901
-0.0131701
-0.0127058
-0.0120194
-0.0111538
-0.0101702
-0.00914737
-0.00817647
-0.00735406
-0.006774
-0.00651849
-0.00664948
-0.00720156
-0.00817754
-0.00954738
-0.0112509
-0.013204
-0.0153072
-0.0174563
-0.0195518
-0.0215074
-0.0232546
-0.0247458
-0.0259526
-0.0268623
-0.0274715
-0.0277679
-0.027712
-0.0274187
0.00176174
0.00139727
0.000938824
0.000431955
-0.000126664
-0.000738658
-0.00140695
-0.00213666
-0.00293295
-0.00379914
-0.00473548
-0.005738
-0.00679766
-0.00789941
-0.00902164
-0.0101359
-0.0112072
-0.0121951
-0.0130556
-0.0137445
-0.0142208
-0.0144513
-0.0144152
-0.0141082
-0.013546
-0.0127683
-0.0118346
-0.0108242
-0.00983121
-0.00895759
-0.00830424
-0.00796153
-0.00799988
-0.00846166
-0.00935583
-0.0106562
-0.0123036
-0.0142125
-0.0162799
-0.018397
-0.02046
-0.0223799
-0.0240881
-0.0255389
-0.0267085
-0.0275896
-0.0281838
-0.0284808
-0.0284379
-0.0281626
0.00263373
0.00211531
0.00153918
0.000977329
0.000398344
-0.000217587
-0.000885407
-0.00162007
-0.00243487
-0.0033399
-0.00434098
-0.00543863
-0.00662696
-0.00789249
-0.00921316
-0.0105578
-0.0118865
-0.0131515
-0.0142998
-0.0152765
-0.0160297
-0.0165149
-0.0167009
-0.016574
-0.0161425
-0.015442
-0.0145299
-0.0134864
-0.0124094
-0.0114078
-0.0105921
-0.0100647
-0.00990888
-0.0101801
-0.0108987
-0.0120473
-0.013572
-0.0153882
-0.0173905
-0.0194649
-0.021501
-0.0234035
-0.0250994
-0.0265414
-0.0277065
-0.02859
-0.0291971
-0.0295222
-0.0295275
-0.0293095
0.00352713
0.00283833
0.00212993
0.00150065
0.000885529
0.000243634
-0.000453467
-0.00123143
-0.00211231
-0.00311335
-0.00424618
-0.00551576
-0.00691884
-0.00844243
-0.0100624
-0.0117428
-0.0134361
-0.0150845
-0.0166232
-0.0179843
-0.0191018
-0.0199179
-0.0203886
-0.0204884
-0.0202157
-0.0195995
-0.0186939
-0.0175781
-0.0163534
-0.0151364
-0.0140496
-0.0132108
-0.012722
-0.0126578
-0.0130579
-0.0139208
-0.0152047
-0.0168315
-0.0186964
-0.0206811
-0.0226677
-0.0245512
-0.0262499
-0.0277094
-0.0289026
-0.0298238
-0.0304788
-0.0308655
-0.0309546
-0.0308279
0.00434637
0.0034783
0.00262988
0.00192453
0.0012583
0.000566345
-0.000194649
-0.00106181
-0.00206638
-0.00323299
-0.00457915
-0.0061139
-0.00783589
-0.00973133
-0.0117722
-0.0139155
-0.0161036
-0.0182662
-0.020324
-0.0221931
-0.0237912
-0.0250439
-0.0258913
-0.0262931
-0.0262338
-0.025732
-0.0248344
-0.0236172
-0.022183
-0.0206554
-0.0191701
-0.0178643
-0.0168639
-0.0162715
-0.0161548
-0.0165392
-0.0174046
-0.018688
-0.0202916
-0.022096
-0.0239754
-0.0258131
-0.0275131
-0.0290081
-0.03026
-0.0312558
-0.0319972
-0.0324824
-0.0326895
-0.0326816
0.0049854
0.00393573
0.00294474
0.00215673
0.00142372
0.000654422
-0.000210587
-0.00122059
-0.00241636
-0.00383014
-0.00548519
-0.00739418
-0.00955674
-0.0119568
-0.0145607
-0.0173161
-0.0201532
-0.0229865
-0.0257196
-0.02825
-0.0304757
-0.0323026
-0.033651
-0.0344614
-0.0347002
-0.0343696
-0.0335049
-0.0321741
-0.0304779
-0.0285447
-0.0265236
-0.0245733
-0.0228492
-0.0214898
-0.0206025
-0.0202522
-0.0204545
-0.021174
-0.02233
-0.0238087
-0.0254789
-0.0272096
-0.0288862
-0.0304206
-0.0317554
-0.0328615
-0.0337291
-0.0343509
-0.0347084
-0.034842
0.00532946
0.00410166
0.00296941
0.00209268
0.00127513
0.000397141
-0.000617856
-0.00183189
-0.00329567
-0.00504918
-0.00712132
-0.00952786
-0.0122683
-0.0153231
-0.0186508
-0.0221881
-0.0258504
-0.0295348
-0.0331251
-0.036497
-0.0395258
-0.0420936
-0.0440968
-0.0454525
-0.0461036
-0.0460303
-0.0452508
-0.0438194
-0.0418296
-0.0394108
-0.0367225
-0.033945
-0.0312665
-0.0288686
-0.0269094
-0.0255084
-0.0247338
-0.0245952
-0.0250448
-0.0259857
-0.0272873
-0.0288054
-0.0304011
-0.0319573
-0.0333867
-0.0346333
-0.0356653
-0.0364614
-0.0370002
-0.0372953
0.00525832
0.00386105
0.00259169
0.00161945
0.000696684
-0.000325769
-0.00154235
-0.00302837
-0.00484485
-0.00703972
-0.00964734
-0.012686
-0.0161542
-0.020027
-0.024254
-0.0287584
-0.0334388
-0.0381722
-0.0428196
-0.0472321
-0.0512584
-0.0547532
-0.0575851
-0.0596438
-0.0608448
-0.0611411
-0.060529
-0.0590419
-0.0567604
-0.0538085
-0.0503506
-0.0465843
-0.0427299
-0.0390152
-0.0356578
-0.0328461
-0.0307199
-0.0293561
-0.0287614
-0.0288745
-0.0295781
-0.0307189
-0.0321316
-0.0336609
-0.0351772
-0.0365836
-0.0378131
-0.0388196
-0.0395701
-0.040046
0.00465105
0.00309768
0.00169736
0.000621391
-0.000430507
-0.00163734
-0.00311181
-0.00494296
-0.0072025
-0.00994643
-0.0132144
-0.0170267
-0.0213794
-0.026241
-0.0315499
-0.0372137
-0.0431114
-0.0490971
-0.0550058
-0.0606607
-0.0658809
-0.0704906
-0.0743279
-0.0772526
-0.0791507
-0.0799454
-0.0796075
-0.0781437
-0.0756154
-0.0721332
-0.0678578
-0.0629952
-0.0577903
-0.0525139
-0.0474458
-0.0428529
-0.0389648
-0.0359502
-0.0338982
-0.0328104
-0.0326043
-0.0331305
-0.0341994
-0.0356101
-0.037177
-0.0387456
-0.0401972
-0.0414466
-0.0424391
-0.043117
0.00339201
0.00170013
0.000176464
-0.00101311
-0.00222098
-0.00365529
-0.00544708
-0.00769936
-0.0104948
-0.0138976
-0.0179525
-0.0226805
-0.0280743
-0.0340939
-0.0406639
-0.0476737
-0.0549793
-0.0624087
-0.0697675
-0.076848
-0.0834373
-0.0893278
-0.0943262
-0.0982626
-0.100995
-0.102416
-0.102471
-0.101137
-0.0984517
-0.0945035
-0.0894382
-0.0834572
-0.0768159
-0.0698159
-0.0627914
-0.0560888
-0.0500387
-0.0449239
-0.0409476
-0.0382098
-0.0366963
-0.0362862
-0.0367771
-0.037921
-0.0394631
-0.0411721
-0.0428576
-0.0443774
-0.0456423
-0.0465468
0.00137756
-0.000431509
-0.00206966
-0.00338416
-0.00477683
-0.00648333
-0.00865266
-0.0114019
-0.0148246
-0.0189932
-0.0239566
-0.0297358
-0.036318
-0.0436519
-0.0516457
-0.0601666
-0.0690442
-0.0780763
-0.0870362
-0.0956825
-0.10377
-0.111059
-0.117328
-0.122379
-0.126048
-0.1282
-0.12876
-0.127676
-0.124958
-0.120668
-0.114925
-0.107909
-0.0998683
-0.0911123
-0.0820108
-0.0729765
-0.0644393
-0.056809
-0.0504317
-0.0455461
-0.0422514
-0.0404956
-0.04009
-0.0407484
-0.0421388
-0.0439337
-0.0458466
-0.0476571
-0.0492256
-0.0503853
-0.001477
-0.00337865
-0.00512124
-0.00657269
-0.00817954
-0.0102024
-0.0128075
-0.0161255
-0.0202609
-0.0252934
-0.0312753
-0.0382255
-0.0461233
-0.0549031
-0.0644522
-0.0746118
-0.0851805
-0.0959221
-0.106575
-0.116862
-0.126508
-0.135243
-0.142823
-0.149031
-0.153683
-0.156627
-0.157773
-0.157052
-0.154442
-0.149976
-0.14374
-0.13588
-0.126612
-0.116226
-0.105099
-0.09368
-0.082478
-0.0720259
-0.0628285
-0.0553005
-0.0497066
-0.0461196
-0.0444116
-0.0442845
-0.0453326
-0.0471161
-0.0492261
-0.0513375
-0.0532404
-0.0546877
-0.00523099
-0.0071978
-0.0090334
-0.0106334
-0.0124826
-0.0148631
-0.0179568
-0.0219075
-0.0268296
-0.0328093
-0.0399004
-0.0481173
-0.0574278
-0.0677479
-0.0789397
-0.0908132
-0.103132
-0.115622
-0.127985
-0.13991
-0.151093
-0.161242
-0.170094
-0.177424
-0.183037
-0.186778
-0.188546
-0.188267
-0.185895
-0.181435
-0.174938
-0.166503
-0.156296
-0.144566
-0.131653
-0.118004
-0.104169
-0.0907737
-0.0784764
-0.0678888
-0.0594901
-0.0535445
-0.0500526
-0.0487558
-0.0491973
-0.0508192
-0.0530645
-0.0554726
-0.0577386
-0.0595092
-0.00991298
-0.0119152
-0.0138306
-0.0155891
-0.0177053
-0.0204789
-0.0241056
-0.0287408
-0.0345078
-0.0414972
-0.0497619
-0.0593087
-0.07009
-0.0819985
-0.0948661
-0.108467
-0.122525
-0.136728
-0.150739
-0.164218
-0.176835
-0.188283
-0.198293
-0.206637
-0.213125
-0.217605
-0.219977
-0.220174
-0.218135
-0.213846
-0.207322
-0.198618
-0.187838
-0.175164
-0.160871
-0.145355
-0.129153
-0.112935
-0.0974742
-0.0835721
-0.071953
-0.0631373
-0.0573376
-0.0544129
-0.0539061
-0.0551542
-0.0574339
-0.0601154
-0.0627685
-0.0648999
-0.015517
-0.0175229
-0.0195028
-0.0214266
-0.0238291
-0.0270228
-0.031215
-0.0365708
-0.0432201
-0.0512558
-0.0607271
-0.0716288
-0.0838937
-0.0973865
-0.111904
-0.127181
-0.1429
-0.158707
-0.174232
-0.189108
-0.202987
-0.215556
-0.226547
-0.23574
-0.242963
-0.248074
-0.250982
-0.25164
-0.249982
-0.245984
-0.239636
-0.23095
-0.219974
-0.206811
-0.191646
-0.174788
-0.156701
-0.138033
-0.119606
-0.102371
-0.0872902
-0.0751861
-0.0665675
-0.0615116
-0.0596447
-0.060241
-0.0624074
-0.0653138
-0.0683691
-0.0708984
-0.0220008
-0.0239774
-0.0260039
-0.028095
-0.0307955
-0.0344257
-0.0392016
-0.0452951
-0.0528404
-0.0619299
-0.072605
-0.0848455
-0.0985595
-0.11358
-0.129665
-0.146506
-0.163744
-0.180987
-0.197835
-0.213899
-0.228821
-0.242292
-0.254052
-0.263899
-0.271683
-0.277285
-0.280625
-0.281687
-0.280408
-0.276764
-0.270734
-0.262298
-0.251455
-0.238235
-0.222728
-0.205128
-0.185785
-0.165251
-0.144319
-0.124006
-0.105469
-0.089833
-0.0779699
-0.0702834
-0.0665968
-0.0662004
-0.0680544
-0.0711067
-0.0745664
-0.0775276
-0.0292864
-0.0311999
-0.0332521
-0.0355067
-0.0385079
-0.0425785
-0.0479394
-0.054767
-0.0631963
-0.073316
-0.0851565
-0.0986782
-0.113762
-0.130204
-0.147723
-0.165967
-0.184537
-0.203007
-0.220951
-0.237966
-0.253694
-0.267833
-0.280142
-0.290442
-0.298608
-0.30455
-0.308205
-0.309584
-0.308643
-0.305363
-0.29972
-0.291683
-0.281215
-0.268289
-0.252909
-0.235153
-0.215226
-0.193538
-0.170766
-0.147896
-0.126185
-0.107015
-0.0916448
-0.0808962
-0.0749216
-0.0731436
-0.0744351
-0.0775189
-0.0813684
-0.0847887
-0.0372627
-0.0390793
-0.0411333
-0.0435409
-0.046835
-0.0513359
-0.057266
-0.0648022
-0.0740776
-0.0851734
-0.0981061
-0.112814
-0.129147
-0.146866
-0.165647
-0.185099
-0.204785
-0.224251
-0.243052
-0.26078
-0.277081
-0.291668
-0.304322
-0.314891
-0.323276
-0.329415
-0.333271
-0.334873
-0.334202
-0.33125
-0.326004
-0.318429
-0.308475
-0.296078
-0.281179
-0.263752
-0.243865
-0.221752
-0.197913
-0.173203
-0.148862
-0.126432
-0.107517
-0.0934125
-0.0847249
-0.0811557
-0.0815907
-0.0845547
-0.0887588
-0.0926561
-0.0457907
-0.0474773
-0.0495063
-0.0520487
-0.0556171
-0.060524
-0.0669896
-0.0751878
-0.0852463
-0.0972363
-0.111158
-0.126924
-0.144356
-0.163175
-0.183022
-0.203468
-0.224044
-0.244275
-0.263703
-0.281922
-0.298589
-0.313435
-0.326264
-0.336949
-0.34542
-0.35164
-0.355597
-0.357332
-0.356855
-0.354173
-0.349284
-0.342166
-0.332769
-0.321017
-0.306812
-0.290058
-0.270702
-0.24881
-0.224674
-0.198939
-0.172708
-0.147547
-0.12531
-0.107752
-0.0960282
-0.0902752
-0.0895319
-0.0921903
-0.0966909
-0.101071
-0.0547098
-0.056235
-0.0582096
-0.0608612
-0.064674
-0.0699484
-0.0768988
-0.0856926
-0.096449
-0.109227
-0.124008
-0.140682
-0.159039
-0.178767
-0.199472
-0.220693
-0.24194
-0.262719
-0.28257
-0.301091
-0.317953
-0.332907
-0.345781
-0.356472
-0.364932
-0.371148
-0.375127
-0.376922
-0.376568
-0.374085
-0.369489
-0.362775
-0.353906
-0.342812
-0.329385
-0.31349
-0.294991
-0.273814
-0.250046
-0.224084
-0.196798
-0.169632
-0.144544
-0.123668
-0.108741
-0.100474
-0.0982257
-0.100365
-0.105081
-0.109938
-0.0638454
-0.0651805
-0.0670696
-0.0697976
-0.0738142
-0.0794043
-0.086773
-0.0960784
-0.107429
-0.120869
-0.136363
-0.153776
-0.172871
-0.193309
-0.214664
-0.236454
-0.258168
-0.279306
-0.299407
-0.31808
-0.335009
-0.349965
-0.362797
-0.373423
-0.381811
-0.387968
-0.391916
-0.393718
-0.393426
-0.391073
-0.386695
-0.380306
-0.371891
-0.361397
-0.348729
-0.333743
-0.316261
-0.296111
-0.27321
-0.247707
-0.220184
-0.191842
-0.164572
-0.140747
-0.122642
-0.111635
-0.107582
-0.108974
-0.113803
-0.119114
-0.073018
-0.074138
-0.0759093
-0.0786745
-0.0828443
-0.088686
-0.0963929
-0.106111
-0.117936
-0.131899
-0.147945
-0.16592
-0.185564
-0.206513
-0.228322
-0.250489
-0.272494
-0.293832
-0.314049
-0.332762
-0.349671
-0.364563
-0.377304
-0.387827
-0.396115
-0.402186
-0.406074
-0.407846
-0.407571
-0.405291
-0.401059
-0.394909
-0.38685
-0.376858
-0.364861
-0.350733
-0.334289
-0.315305
-0.293578
-0.269047
-0.241995
-0.213301
-0.184638
-0.158431
-0.137376
-0.123546
-0.117443
-0.117858
-0.122681
-0.128413
-0.082051
-0.0829356
-0.0845572
-0.0873147
-0.0915786
-0.0975969
-0.10555
-0.11557
-0.127739
-0.142073
-0.158505
-0.176863
-0.196868
-0.218141
-0.240221
-0.262597
-0.284743
-0.306157
-0.326389
-0.345067
-0.361904
-0.3767
-0.389333
-0.399746
-0.407929
-0.41391
-0.417728
-0.419451
-0.419162
-0.416909
-0.412758
-0.406764
-0.398961
-0.389354
-0.377906
-0.364521
-0.349036
-0.331216
-0.310793
-0.28755
-0.261507
-0.233192
-0.203945
-0.176055
-0.152466
-0.135886
-0.127573
-0.126801
-0.13149
-0.137596
-0.0907786
-0.0914131
-0.0928547
-0.0955559
-0.0998471
-0.105958
-0.114054
-0.124255
-0.136629
-0.15118
-0.167827
-0.186389
-0.206575
-0.227996
-0.250184
-0.272624
-0.29479
-0.316184
-0.336363
-0.354962
-0.371705
-0.3864
-0.398932
-0.409247
-0.417341
-0.423242
-0.426995
-0.428664
-0.428343
-0.426082
-0.421961
-0.416051
-0.408408
-0.39907
-0.388034
-0.375247
-0.360581
-0.343826
-0.324691
-0.30287
-0.278178
-0.250815
-0.221725
-0.192904
-0.167339
-0.148242
-0.137662
-0.135527
-0.13995
-0.146377
-0.0990535
-0.0994295
-0.100663
-0.103257
-0.107503
-0.113614
-0.121743
-0.131996
-0.14443
-0.159038
-0.175732
-0.194324
-0.21452
-0.235928
-0.258079
-0.280461
-0.30255
-0.323854
-0.343936
-0.362438
-0.379088
-0.393696
-0.406149
-0.416394
-0.424426
-0.430271
-0.433974
-0.435594
-0.435233
-0.432941
-0.428809
-0.422922
-0.415357
-0.406179
-0.395424
-0.38308
-0.369067
-0.353215
-0.335254
-0.31484
-0.291654
-0.265624
-0.237298
-0.20827
-0.181366
-0.160117
-0.147323
-0.143699
-0.147732
-0.15442
-0.106752
-0.106868
-0.107869
-0.110303
-0.114428
-0.12044
-0.128484
-0.138654
-0.150998
-0.165502
-0.182077
-0.200533
-0.220579
-0.241826
-0.263813
-0.286033
-0.307969
-0.329134
-0.349095
-0.367498
-0.38407
-0.398619
-0.411029
-0.421242
-0.429247
-0.435066
-0.438741
-0.440325
-0.439925
-0.43759
-0.433416
-0.427503
-0.419946
-0.410834
-0.400238
-0.388189
-0.374655
-0.35952
-0.342554
-0.323423
-0.301738
-0.277234
-0.250103
-0.22149
-0.193898
-0.170957
-0.156106
-0.150924
-0.154455
-0.161347
-0.113777
-0.11364
-0.114391
-0.116613
-0.120534
-0.126344
-0.134178
-0.144124
-0.156224
-0.170464
-0.186755
-0.204914
-0.224659
-0.245613
-0.267323
-0.289293
-0.311015
-0.332006
-0.351838
-0.370152
-0.386671
-0.401197
-0.413606
-0.423831
-0.43185
-0.437679
-0.441354
-0.442922
-0.442488
-0.440104
-0.435869
-0.429893
-0.422286
-0.413162
-0.402618
-0.390727
-0.377507
-0.362894
-0.346715
-0.328673
-0.308367
-0.28541
-0.259717
-0.231994
-0.204305
-0.180175
-0.163509
-0.156757
-0.159694
-0.166735
-0.12006
-0.119686
-0.120175
-0.122135
-0.125772
-0.131268
-0.138762
-0.148338
-0.160039
-0.173854
-0.189702
-0.207413
-0.226717
-0.247256
-0.26859
-0.290238
-0.311699
-0.332495
-0.352196
-0.370439
-0.386938
-0.401483
-0.413936
-0.424217
-0.432292
-0.438167
-0.441868
-0.443439
-0.442974
-0.440542
-0.436234
-0.430168
-0.422469
-0.413267
-0.402686
-0.390835
-0.377774
-0.363495
-0.347885
-0.3307
-0.311564
-0.290042
-0.26585
-0.239313
-0.212009
-0.187179
-0.16899
-0.160708
-0.162978
-0.170125
-0.125564
-0.124973
-0.125197
-0.126851
-0.13012
-0.135189
-0.142203
-0.151255
-0.162396
-0.175624
-0.190872
-0.207986
-0.226719
-0.246729
-0.267598
-0.288857
-0.310017
-0.330601
-0.350177
-0.368371
-0.384885
-0.399494
-0.412042
-0.422431
-0.430613
-0.436579
-0.440347
-0.441954
-0.441479
-0.439
-0.434605
-0.428422
-0.420586
-0.411246
-0.400552
-0.388636
-0.375599
-0.361479
-0.346221
-0.329643
-0.311419
-0.291112
-0.268328
-0.243088
-0.216499
-0.191391
-0.171984
-0.162247
-0.163795
-0.171015
-0.130279
-0.129502
-0.129465
-0.130773
-0.133592
-0.138115
-0.144504
-0.152872
-0.163285
-0.175762
-0.190253
-0.206629
-0.224665
-0.244044
-0.264367
-0.285181
-0.306006
-0.326366
-0.345824
-0.363993
-0.380559
-0.395276
-0.407967
-0.418515
-0.426852
-0.432954
-0.436826
-0.438498
-0.438038
-0.435528
-0.431055
-0.424749
-0.416756
-0.407235
-0.396352
-0.384268
-0.371123
-0.356997
-0.341884
-0.325659
-0.308055
-0.288673
-0.26707
-0.243063
-0.217342
-0.19226
-0.17191
-0.160805
-0.161585
-0.168859
-0.134224
-0.133297
-0.133011
-0.133938
-0.136228
-0.140083
-0.145697
-0.153212
-0.162726
-0.174284
-0.187866
-0.203368
-0.220592
-0.239245
-0.258951
-0.279272
-0.299734
-0.319864
-0.339214
-0.357384
-0.374038
-0.388907
-0.40179
-0.412547
-0.42109
-0.427374
-0.431393
-0.433166
-0.432746
-0.430226
-0.425682
-0.419248
-0.411079
-0.401343
-0.390223
-0.377898
-0.364527
-0.350228
-0.335046
-0.318916
-0.301624
-0.282821
-0.26207
-0.239068
-0.214176
-0.18927
-0.168172
-0.155767
-0.155734
-0.163055
-0.137442
-0.136409
-0.135892
-0.13641
-0.138088
-0.141151
-0.14583
-0.152317
-0.160755
-0.171228
-0.18375
-0.198248
-0.214553
-0.232398
-0.251426
-0.271214
-0.291294
-0.311191
-0.330446
-0.348642
-0.365419
-0.380485
-0.39361
-0.404628
-0.413428
-0.419946
-0.424158
-0.426073
-0.42573
-0.423223
-0.418624
-0.412068
-0.403713
-0.393735
-0.382327
-0.369684
-0.355985
-0.341373
-0.325918
-0.309605
-0.292292
-0.273681
-0.253365
-0.230995
-0.206702
-0.181935
-0.160158
-0.146466
-0.145553
-0.152924
-0.139996
-0.138908
-0.138188
-0.138267
-0.139252
-0.14139
-0.144969
-0.150245
-0.157425
-0.166645
-0.177961
-0.191335
-0.206627
-0.223594
-0.241897
-0.261123
-0.28081
-0.300477
-0.319653
-0.337902
-0.35484
-0.370145
-0.38356
-0.394892
-0.404003
-0.410808
-0.415265
-0.417369
-0.417148
-0.414686
-0.410059
-0.403395
-0.394853
-0.384615
-0.372878
-0.359846
-0.345712
-0.330636
-0.314713
-0.297952
-0.280254
-0.261395
-0.241022
-0.218777
-0.194662
-0.169781
-0.14722
-0.132153
-0.13025
-0.137672
-0.14197
-0.140885
-0.139992
-0.139604
-0.139806
-0.140879
-0.143182
-0.147059
-0.152797
-0.160599
-0.170572
-0.182716
-0.196917
-0.212953
-0.230499
-0.24915
-0.268443
-0.287892
-0.307011
-0.325343
-0.342479
-0.358068
-0.371822
-0.38352
-0.392998
-0.400146
-0.404903
-0.40725
-0.407202
-0.404827
-0.400208
-0.39346
-0.384742
-0.374234
-0.362134
-0.348648
-0.333973
-0.318276
-0.301667
-0.284175
-0.265722
-0.246126
-0.22511
-0.202359
-0.177808
-0.152329
-0.128658
-0.111971
-0.108888
-0.116341
-0.143465
-0.142449
-0.141415
-0.140522
-0.139839
-0.139693
-0.140536
-0.14282
-0.146934
-0.153164
-0.161673
-0.172498
-0.185552
-0.200626
-0.217405
-0.235485
-0.254401
-0.273655
-0.292746
-0.311196
-0.328569
-0.344485
-0.358628
-0.370745
-0.380646
-0.388196
-0.393314
-0.395962
-0.396144
-0.393908
-0.389343
-0.382546
-0.37367
-0.362892
-0.350402
-0.3364
-0.321075
-0.304593
-0.287063
-0.26852
-0.248901
-0.228038
-0.205701
-0.181663
-0.155869
-0.129054
-0.10368
-0.0849035
-0.0803234
-0.0877301
-0.144601
-0.14373
-0.142584
-0.14113
-0.139434
-0.137894
-0.13708
-0.137578
-0.139899
-0.14442
-0.151366
-0.160813
-0.172691
-0.186801
-0.202828
-0.220364
-0.238935
-0.258031
-0.277133
-0.295741
-0.313394
-0.329683
-0.344263
-0.356853
-0.367233
-0.375245
-0.380785
-0.383798
-0.384273
-0.382239
-0.377778
-0.370977
-0.361973
-0.350932
-0.338029
-0.323447
-0.307362
-0.289917
-0.271208
-0.251258
-0.229998
-0.207266
-0.182843
-0.156571
-0.128504
-0.0993351
-0.0713446
-0.049701
-0.0431098
-0.050269
-0.145529
-0.144887
-0.143644
-0.141534
-0.138659
-0.135523
-0.132846
-0.131372
-0.131748
-0.134452
-0.139772
-0.147817
-0.158528
-0.171705
-0.187025
-0.204069
-0.22235
-0.24134
-0.260503
-0.279317
-0.297295
-0.314004
-0.329069
-0.342182
-0.353096
-0.36163
-0.367656
-0.3711
-0.371933
-0.370169
-0.365868
-0.359113
-0.350016
-0.338722
-0.325386
-0.310163
-0.293196
-0.274597
-0.254425
-0.232668
-0.209228
-0.183922
-0.156532
-0.12691
-0.095268
-0.0624156
-0.0305128
-0.00479329
0.00465118
-0.00182486
-0.146457
-0.14613
-0.144772
-0.141849
-0.137566
-0.132595
-0.127838
-0.124222
-0.122537
-0.12336
-0.127039
-0.133704
-0.143299
-0.155613
-0.170304
-0.186935
-0.205001
-0.223955
-0.24324
-0.262313
-0.280667
-0.297841
-0.313437
-0.32712
-0.33862
-0.34773
-0.354302
-0.358239
-0.359496
-0.358067
-0.353987
-0.347328
-0.338173
-0.326638
-0.312847
-0.296914
-0.278936
-0.258972
-0.237024
-0.213016
-0.186787
-0.158099
-0.126698
-0.0924472
-0.0556288
-0.0173558
0.0201706
0.0517099
0.0653872
0.0604976
-0.147703
-0.147758
-0.146197
-0.142197
-0.136194
-0.129101
-0.122046
-0.116144
-0.11233
-0.111269
-0.11335
-0.118715
-0.127296
-0.138856
-0.15303
-0.169354
-0.187299
-0.206299
-0.225776
-0.245167
-0.263945
-0.281629
-0.297796
-0.31209
-0.324218
-0.33395
-0.341116
-0.3456
-0.347336
-0.346298
-0.342496
-0.335973
-0.326789
-0.315019
-0.300744
-0.284026
-0.264898
-0.243345
-0.21928
-0.192534
-0.162838
-0.129853
-0.0932385
-0.0528253
-0.00893996
0.0370171
0.0823631
0.121975
0.142001
0.140394
-0.149824
-0.150246
-0.148247
-0.14274
-0.134583
-0.125027
-0.115458
-0.107173
-0.101226
-0.0983492
-0.0989492
-0.103155
-0.110872
-0.12183
-0.135628
-0.151772
-0.169706
-0.188842
-0.208584
-0.228351
-0.247598
-0.265825
-0.282593
-0.297524
-0.310306
-0.320687
-0.328479
-0.333545
-0.335795
-0.335183
-0.331693
-0.325335
-0.316135
-0.304122
-0.289324
-0.271738
-0.251313
-0.227937
-0.201404
-0.171404
-0.137514
-0.0992251
-0.0560421
-0.00768618
0.0455231
0.102056
0.158269
0.208768
0.238291
0.242739
-0.153881
-0.154416
-0.151445
-0.14373
-0.132823
-0.120399
-0.108108
-0.0974009
-0.0893969
-0.0848523
-0.0841592
-0.0874086
-0.0944597
-0.104998
-0.118582
-0.134684
-0.152721
-0.172083
-0.192156
-0.212345
-0.23209
-0.250879
-0.268256
-0.283826
-0.297261
-0.308292
-0.316711
-0.322359
-0.325129
-0.324947
-0.321773
-0.315583
-0.306359
-0.29408
-0.278709
-0.260166
-0.238301
-0.212875
-0.18353
-0.149769
-0.110949
-0.0663152
-0.0151146
0.043157
0.108314
0.178785
0.250365
0.316042
0.360521
0.375954
-0.162001
-0.161772
-0.156675
-0.14562
-0.131146
-0.115372
-0.100159
-0.0870472
-0.0771411
-0.0711482
-0.0694111
-0.0719505
-0.0785625
-0.0888788
-0.102415
-0.118607
-0.136847
-0.156505
-0.176955
-0.197588
-0.217835
-0.237171
-0.255132
-0.271309
-0.28536
-0.297001
-0.306007
-0.312203
-0.315457
-0.315675
-0.312786
-0.306732
-0.297455
-0.284877
-0.268881
-0.2493
-0.22587
-0.198204
-0.165755
-0.127792
-0.0833838
-0.0314321
0.0291993
0.0994046
0.179325
0.267564
0.359879
0.447928
0.516616
0.553459
-0.178439
-0.17512
-0.165489
-0.149253
-0.13008
-0.110361
-0.0920141
-0.0765446
-0.0649344
-0.0577554
-0.0552496
-0.0573355
-0.0637303
-0.074006
-0.087633
-0.104016
-0.122524
-0.142512
-0.163343
-0.184401
-0.205109
-0.224939
-0.243416
-0.260126
-0.274714
-0.286885
-0.2964
-0.303068
-0.306739
-0.307295
-0.304636
-0.298672
-0.289298
-0.276381
-0.259725
-0.23906
-0.213997
-0.183984
-0.148262
-0.105821
-0.0553767
0.00461408
0.075837
0.159823
0.257365
0.36756
0.486397
0.606004
0.707811
0.779831
-0.211355
-0.199551
-0.180386
-0.155873
-0.130398
-0.105986
-0.0842554
-0.0664623
-0.0533447
-0.045254
-0.0422408
-0.0440977
-0.0504535
-0.0608182
-0.0746203
-0.0912374
-0.110021
-0.130316
-0.15148
-0.172894
-0.193981
-0.214208
-0.233098
-0.250231
-0.265248
-0.277844
-0.287768
-0.294817
-0.298824
-0.299649
-0.297166
-0.291251
-0.281755
-0.268487
-0.25118
-0.229455
-0.202798
-0.170488
-0.131545
-0.0846647
-0.0281654
0.0400336
0.122357
0.221345
0.339104
0.476209
0.629787
0.791374
0.930632
1.03508
-0.280276
-0.243433
-0.202851
-0.164853
-0.13111
-0.101386
-0.076311
-0.0565425
-0.0423501
-0.0337318
-0.0305173
-0.0323752
-0.0388493
-0.0493963
-0.0634141
-0.0802638
-0.0992885
-0.119831
-0.14125
-0.162929
-0.184292
-0.20481
-0.224005
-0.241457
-0.256801
-0.269729
-0.27998
-0.28734
-0.291626
-0.292681
-0.290356
-0.284493
-0.274905
-0.26135
-0.243489
-0.220861
-0.192835
-0.158545
-0.11681
-0.0660573
-0.00423029
0.0713047
0.163824
0.277246
0.415939
0.584134
0.784047
1.0099
1.21714
1.36926
-0.458014
-0.313123
-0.218553
-0.164619
-0.124208
-0.0903234
-0.0635311
-0.0434934
-0.0294979
-0.0212267
-0.0184412
-0.0207495
-0.0276471
-0.0385749
-0.0529331
-0.0700897
-0.0893969
-0.110207
-0.131888
-0.153833
-0.175472
-0.196279
-0.215781
-0.233557
-0.249239
-0.262514
-0.273116
-0.280819
-0.285431
-0.286778
-0.284693
-0.278994
-0.269463
-0.255819
-0.237684
-0.214541
-0.185681
-0.150138
-0.106605
-0.0533313
0.0119974
0.0924244
0.191937
0.315787
0.471006
0.667297
0.91808
1.23959
1.62917
2.07738
-0.913088
-0.400346
-0.194429
-0.14577
-0.108166
-0.0713202
-0.0445476
-0.0263675
-0.0140573
-0.00704141
-0.00527437
-0.00842693
-0.0160069
-0.0274881
-0.0423099
-0.0598717
-0.0795488
-0.100712
-0.122744
-0.145048
-0.167061
-0.188262
-0.208177
-0.226384
-0.242514
-0.256247
-0.267312
-0.275476
-0.280538
-0.282314
-0.280625
-0.275278
-0.266045
-0.252629
-0.234634
-0.21152
-0.182553
-0.146736
-0.102724
-0.0487145
0.0176899
0.0996842
0.201571
0.329309
0.491608
0.702388
0.986704
1.39868
2.06764
3.21982
)
;

boundaryField
{
    movingWall
    {
        type            zeroGradient;
    }
    fixedWalls
    {
        type            zeroGradient;
    }
    frontAndBack
    {
        type            empty;
    }
}


// ************************************************************************* //
