/*--------------------------------*- C++ -*----------------------------------*\
  =========                 |
  \\      /  F ield         | OpenFOAM: The Open Source CFD Toolbox
   \\    /   O peration     | Website:  https://openfoam.org
    \\  /    A nd           | Version:  7
     \\/     M anipulation  |
\*---------------------------------------------------------------------------*/
FoamFile
{
    version     2.0;
    format      ascii;
    class       volVectorField;
    location    "578";
    object      U;
}
// * * * * * * * * * * * * * * * * * * * * * * * * * * * * * * * * * * * * * //

dimensions      [0 1 -1 0 0 0 0];

internalField   nonuniform List<vector> 
2500
(
(0.00011017 -0.000111321 0)
(0.000488734 -0.000151194 0)
(0.000833865 -0.000126402 0)
(0.000999341 -7.91947e-05 0)
(0.000909169 -3.12543e-05 0)
(0.000558518 1.15284e-05 0)
(-3.50979e-05 4.82424e-05 0)
(-0.000851898 8.02628e-05 0)
(-0.0018766 0.000109753 0)
(-0.00309974 0.000138692 0)
(-0.00451617 0.000168424 0)
(-0.00612208 0.000199543 0)
(-0.00791175 0.000231926 0)
(-0.00987449 0.000264821 0)
(-0.0119921 0.000296937 0)
(-0.0142369 0.000326534 0)
(-0.0165704 0.000351502 0)
(-0.0189424 0.000369454 0)
(-0.0212917 0.000377852 0)
(-0.0235465 0.000374164 0)
(-0.0256264 0.000356076 0)
(-0.0274458 0.000321728 0)
(-0.0289171 0.000269994 0)
(-0.0299559 0.000200747 0)
(-0.0304864 0.000115128 0)
(-0.0304472 1.5689e-05 0)
(-0.0297969 -9.36641e-05 0)
(-0.028519 -0.000207615 0)
(-0.0266261 -0.000319798 0)
(-0.024162 -0.000423219 0)
(-0.0212018 -0.000510817 0)
(-0.0178494 -0.000576142 0)
(-0.0142333 -0.000614049 0)
(-0.0104987 -0.000621321 0)
(-0.0067992 -0.000597105 0)
(-0.00328627 -0.000543065 0)
(-9.92386e-05 -0.00046319 0)
(0.00264405 -0.000363551 0)
(0.00485426 -0.000251665 0)
(0.00647494 -0.000135273 0)
(0.00748416 -2.14711e-05 0)
(0.0078933 8.37567e-05 0)
(0.00774337 0.000175866 0)
(0.00710085 0.000251546 0)
(0.00605471 0.000307807 0)
(0.00471677 0.000340478 0)
(0.0032276 0.000342388 0)
(0.00177482 0.000300726 0)
(0.000625267 0.000192017 0)
(2.97894e-05 2.97675e-05 0)
(0.000155466 -0.000495938 0)
(0.000690158 -0.000692256 0)
(0.000982572 -0.00043952 0)
(0.00078236 9.8191e-06 0)
(-4.62346e-05 0.000514736 0)
(-0.00152466 0.00100971 0)
(-0.00363013 0.0014727 0)
(-0.00632951 0.00190389 0)
(-0.00959275 0.00231184 0)
(-0.0133959 0.00270521 0)
(-0.0177183 0.00308849 0)
(-0.0225366 0.00346034 0)
(-0.0278175 0.00381338 0)
(-0.0335122 0.00413489 0)
(-0.0395506 0.00440786 0)
(-0.0458377 0.00461216 0)
(-0.0522523 0.00472595 0)
(-0.0586469 0.00472707 0)
(-0.0648501 0.00459475 0)
(-0.0706708 0.00431132 0)
(-0.0759054 0.00386416 0)
(-0.0803455 0.00324748 0)
(-0.0837886 0.00246407 0)
(-0.086049 0.00152666 0)
(-0.0869696 0.000458778 0)
(-0.0864334 -0.000705208 0)
(-0.0843742 -0.00192117 0)
(-0.0807841 -0.00313672 0)
(-0.0757193 -0.00429417 0)
(-0.0693021 -0.00533404 0)
(-0.0617191 -0.0061992 0)
(-0.0532152 -0.00683935 0)
(-0.0440833 -0.00721548 0)
(-0.0346508 -0.0073036 0)
(-0.0252618 -0.00709748 0)
(-0.0162585 -0.00660982 0)
(-0.00796119 -0.0058715 0)
(-0.000649535 -0.00492928 0)
(0.00545316 -0.00384181 0)
(0.0101919 -0.00267411 0)
(0.0134864 -0.00149161 0)
(0.0153326 -0.000355827 0)
(0.0157998 0.0006784 0)
(0.0150244 0.00156311 0)
(0.0132058 0.00225272 0)
(0.0106041 0.00269662 0)
(0.00754415 0.00282931 0)
(0.00443529 0.00256352 0)
(0.00181887 0.00181082 0)
(0.000193624 0.000627272 0)
(0.00013028 -0.000843196 0)
(0.000379666 -0.000975789 0)
(6.88931e-05 -0.000210767 0)
(-0.00105022 0.000957998 0)
(-0.00310441 0.00225462 0)
(-0.00611458 0.00354342 0)
(-0.0100572 0.00477304 0)
(-0.0148958 0.00593707 0)
(-0.0205937 0.00704648 0)
(-0.0271152 0.0081122 0)
(-0.0344213 0.00913576 0)
(-0.0424614 0.0101054 0)
(-0.0511645 0.0109958 0)
(-0.0604318 0.0117697 0)
(-0.0701311 0.012381 0)
(-0.0800939 0.0127779 0)
(-0.090115 0.0129068 0)
(-0.099956 0.0127163 0)
(-0.109351 0.0121618 0)
(-0.118014 0.0112093 0)
(-0.125653 0.00983973 0)
(-0.13198 0.00805277 0)
(-0.136727 0.00586947 0)
(-0.139658 0.00333418 0)
(-0.140586 0.000515124 0)
(-0.139381 -0.00249677 0)
(-0.135986 -0.00559113 0)
(-0.130418 -0.00864305 0)
(-0.122779 -0.0115193 0)
(-0.113249 -0.0140857 0)
(-0.102087 -0.0162153 0)
(-0.0896257 -0.0177978 0)
(-0.0762533 -0.0187474 0)
(-0.0624031 -0.0190107 0)
(-0.0485323 -0.018572 0)
(-0.0351002 -0.0174561 0)
(-0.0225448 -0.015728 0)
(-0.01126 -0.013488 0)
(-0.00157368 -0.0108653 0)
(0.00626944 -0.00800728 0)
(0.0121202 -0.00506905 0)
(0.0159324 -0.00220224 0)
(0.0177636 0.000451252 0)
(0.0177711 0.00276139 0)
(0.0162082 0.00460452 0)
(0.0134189 0.00585212 0)
(0.00983549 0.00635647 0)
(0.00599256 0.00594246 0)
(0.00259189 0.00443384 0)
(0.000303904 0.00178796 0)
(6.79608e-05 -0.00095585 0)
(-0.000256884 -0.000624064 0)
(-0.00156357 0.000999446 0)
(-0.00402728 0.00320118 0)
(-0.00770865 0.00558548 0)
(-0.0126029 0.00795588 0)
(-0.0186771 0.0102357 0)
(-0.0258907 0.0124116 0)
(-0.0342015 0.014493 0)
(-0.0435627 0.0164859 0)
(-0.0539145 0.0183796 0)
(-0.0651741 0.0201406 0)
(-0.0772263 0.0217137 0)
(-0.0899165 0.023025 0)
(-0.103047 0.023988 0)
(-0.116374 0.0245102 0)
(-0.129616 0.0245003 0)
(-0.142457 0.0238755 0)
(-0.154554 0.0225693 0)
(-0.165556 0.0205377 0)
(-0.175115 0.0177657 0)
(-0.182899 0.0142717 0)
(-0.188611 0.0101107 0)
(-0.191998 0.00537498 0)
(-0.19287 0.000194044 0)
(-0.191104 -0.00526906 0)
(-0.186659 -0.0108238 0)
(-0.179573 -0.0162606 0)
(-0.169972 -0.0213602 0)
(-0.15807 -0.0259041 0)
(-0.144162 -0.0296867 0)
(-0.12862 -0.0325284 0)
(-0.111886 -0.0342883 0)
(-0.09445 -0.0348751 0)
(-0.0768394 -0.0342564 0)
(-0.0595914 -0.0324638 0)
(-0.0432306 -0.0295935 0)
(-0.0282421 -0.0258019 0)
(-0.0150463 -0.0212956 0)
(-0.00397574 -0.0163174 0)
(0.00474315 -0.01113 0)
(0.0110026 -0.00600042 0)
(0.0148208 -0.00118553 0)
(0.0163422 0.00307224 0)
(0.0158321 0.00654239 0)
(0.0136726 0.00899263 0)
(0.0103545 0.0101725 0)
(0.00648827 0.00980075 0)
(0.00288386 0.00757881 0)
(0.000344943 0.00326315 0)
(-1.41277e-05 -0.000678418 0)
(-0.00111074 0.000676259 0)
(-0.00370207 0.00356475 0)
(-0.00783627 0.00711112 0)
(-0.0134612 0.0108405 0)
(-0.0205229 0.0145231 0)
(-0.0289677 0.0180728 0)
(-0.0387461 0.0214742 0)
(-0.0498084 0.0247321 0)
(-0.0620948 0.0278399 0)
(-0.0755219 0.0307631 0)
(-0.0899714 0.0334346 0)
(-0.105281 0.0357571 0)
(-0.121239 0.0376104 0)
(-0.137583 0.0388608 0)
(-0.154005 0.0393717 0)
(-0.170157 0.0390149 0)
(-0.185662 0.0376812 0)
(-0.200129 0.0352907 0)
(-0.213167 0.031801 0)
(-0.224399 0.027214 0)
(-0.233479 0.0215799 0)
(-0.240102 0.0149994 0)
(-0.244019 0.00762274 0)
(-0.24504 -0.000352906 0)
(-0.243052 -0.0086882 0)
(-0.238013 -0.0171109 0)
(-0.229965 -0.0253264 0)
(-0.219033 -0.0330285 0)
(-0.205429 -0.0399123 0)
(-0.189451 -0.0456898 0)
(-0.171482 -0.0501059 0)
(-0.15198 -0.0529549 0)
(-0.131469 -0.0540968 0)
(-0.110521 -0.0534701 0)
(-0.0897362 -0.0511013 0)
(-0.0697151 -0.0471081 0)
(-0.0510301 -0.0416959 0)
(-0.0341954 -0.0351472 0)
(-0.019638 -0.0278044 0)
(-0.00767319 -0.0200485 0)
(0.00151461 -0.0122759 0)
(0.00788375 -0.00488076 0)
(0.011541 0.00175905 0)
(0.0127373 0.00728229 0)
(0.0118636 0.0113312 0)
(0.00943983 0.0135334 0)
(0.00612415 0.013482 0)
(0.00279437 0.0107278 0)
(0.000341513 0.00478886 0)
(-0.00011065 8.27286e-05 0)
(-0.00211803 0.0031359 0)
(-0.00620458 0.00775136 0)
(-0.012249 0.0129652 0)
(-0.0200504 0.0182795 0)
(-0.0294865 0.0234713 0)
(-0.0404729 0.0284677 0)
(-0.0529454 0.033261 0)
(-0.0668435 0.0378504 0)
(-0.0820913 0.0422081 0)
(-0.0985793 0.046265 0)
(-0.116152 0.0499085 0)
(-0.1346 0.05299 0)
(-0.153659 0.0553362 0)
(-0.173011 0.0567639 0)
(-0.192293 0.0570944 0)
(-0.211112 0.0561687 0)
(-0.229053 0.053861 0)
(-0.245699 0.0500895 0)
(-0.260643 0.0448251 0)
(-0.273504 0.0380973 0)
(-0.283936 0.0299965 0)
(-0.291639 0.0206735 0)
(-0.296366 0.0103374 0)
(-0.297926 -0.000749059 0)
(-0.296197 -0.0122755 0)
(-0.291121 -0.0238937 0)
(-0.282713 -0.0352285 0)
(-0.271071 -0.0458894 0)
(-0.256377 -0.0554845 0)
(-0.238902 -0.0636379 0)
(-0.219011 -0.0700094 0)
(-0.197157 -0.0743154 0)
(-0.173879 -0.0763504 0)
(-0.149784 -0.0760057 0)
(-0.125527 -0.0732848 0)
(-0.101787 -0.0683113 0)
(-0.0792301 -0.0613285 0)
(-0.0584751 -0.0526889 0)
(-0.0400587 -0.0428354 0)
(-0.0244016 -0.0322743 0)
(-0.0117827 -0.0215466 0)
(-0.00232133 -0.0112002 0)
(0.00403224 -0.00177017 0)
(0.00749743 0.00622681 0)
(0.00845414 0.0122881 0)
(0.00743436 0.0158997 0)
(0.00512516 0.0165122 0)
(0.00243859 0.0135125 0)
(0.00031146 0.00619079 0)
(-0.000218425 0.00139336 0)
(-0.0032353 0.00690363 0)
(-0.00896346 0.0137473 0)
(-0.0170804 0.0209576 0)
(-0.0272101 0.028082 0)
(-0.0391489 0.0349521 0)
(-0.0527741 0.0415374 0)
(-0.0680019 0.0478496 0)
(-0.0847572 0.0538819 0)
(-0.102945 0.0595788 0)
(-0.122429 0.0648261 0)
(-0.143016 0.0694569 0)
(-0.164454 0.0732645 0)
(-0.186434 0.0760206 0)
(-0.208594 0.0774946 0)
(-0.230536 0.0774728 0)
(-0.251839 0.0757751 0)
(-0.272073 0.07227 0)
(-0.290817 0.0668847 0)
(-0.307666 0.0596127 0)
(-0.322246 0.0505163 0)
(-0.334222 0.0397273 0)
(-0.343296 0.0274442 0)
(-0.349217 0.013928 0)
(-0.351783 -0.000502447 0)
(-0.350844 -0.0154762 0)
(-0.346305 -0.0305788 0)
(-0.338137 -0.0453615 0)
(-0.326383 -0.0593529 0)
(-0.31117 -0.0720724 0)
(-0.292718 -0.0830497 0)
(-0.271352 -0.091847 0)
(-0.247498 -0.0980847 0)
(-0.22169 -0.10147 0)
(-0.194559 -0.101822 0)
(-0.166811 -0.0990964 0)
(-0.139205 -0.0934014 0)
(-0.112512 -0.0850007 0)
(-0.0874716 -0.0743075 0)
(-0.0647526 -0.0618634 0)
(-0.0449045 -0.0483074 0)
(-0.0283248 -0.0343388 0)
(-0.0152317 -0.02068 0)
(-0.00565073 -0.00804657 0)
(0.000588085 0.00286781 0)
(0.00384178 0.0113908 0)
(0.00464217 0.0168487 0)
(0.00369242 0.0185359 0)
(0.00191588 0.0156752 0)
(0.000268567 0.00736047 0)
(-0.000334665 0.00330129 0)
(-0.00442614 0.0120808 0)
(-0.0118848 0.0216735 0)
(-0.022164 0.0312059 0)
(-0.034696 0.0403478 0)
(-0.0491878 0.0490393 0)
(-0.0654736 0.0573242 0)
(-0.0834465 0.0652468 0)
(-0.103014 0.0727955 0)
(-0.12406 0.0798805 0)
(-0.14642 0.0863354 0)
(-0.169868 0.0919324 0)
(-0.194115 0.096405 0)
(-0.218818 0.0994719 0)
(-0.243588 0.100862 0)
(-0.268008 0.100336 0)
(-0.291649 0.097703 0)
(-0.314084 0.0928367 0)
(-0.3349 0.0856811 0)
(-0.353707 0.076256 0)
(-0.370146 0.0646563 0)
(-0.383886 0.0510505 0)
(-0.394632 0.0356757 0)
(-0.402123 0.0188341 0)
(-0.406131 0.000887844 0)
(-0.406472 -0.0177442 0)
(-0.403001 -0.0365929 0)
(-0.39563 -0.0551447 0)
(-0.384332 -0.0728516 0)
(-0.369163 -0.0891447 0)
(-0.350269 -0.103453 0)
(-0.327907 -0.115228 0)
(-0.302453 -0.123975 0)
(-0.274413 -0.129287 0)
(-0.244417 -0.130881 0)
(-0.213211 -0.128633 0)
(-0.181629 -0.122603 0)
(-0.150551 -0.113051 0)
(-0.120859 -0.100432 0)
(-0.0933776 -0.0853832 0)
(-0.0688175 -0.0686801 0)
(-0.0477266 -0.0511966 0)
(-0.0304531 -0.0338526 0)
(-0.017123 -0.0175717 0)
(-0.00763427 -0.00325326 0)
(-0.00166593 0.00823482 0)
(0.0013032 0.0160404 0)
(0.00198508 0.0192896 0)
(0.00130294 0.0170444 0)
(0.000223056 0.00823701 0)
(-0.000456249 0.00583701 0)
(-0.00565432 0.0187236 0)
(-0.0148768 0.0315877 0)
(-0.0273388 0.0437545 0)
(-0.0422722 0.0550998 0)
(-0.0592916 0.0657303 0)
(-0.0781858 0.0757965 0)
(-0.0988227 0.0853897 0)
(-0.12109 0.0944944 0)
(-0.14485 0.102983 0)
(-0.169911 0.11063 0)
(-0.19602 0.117147 0)
(-0.222859 0.122208 0)
(-0.250063 0.125486 0)
(-0.27723 0.126677 0)
(-0.303941 0.125526 0)
(-0.329773 0.121843 0)
(-0.354311 0.115513 0)
(-0.377161 0.106501 0)
(-0.397951 0.0948518 0)
(-0.416333 0.0806884 0)
(-0.431985 0.0642077 0)
(-0.44461 0.0456755 0)
(-0.453934 0.0254228 0)
(-0.459706 0.00384269 0)
(-0.461704 -0.0186112 0)
(-0.45974 -0.0414268 0)
(-0.453659 -0.0640373 0)
(-0.443363 -0.085827 0)
(-0.42882 -0.106143 0)
(-0.410084 -0.124313 0)
(-0.387318 -0.139669 0)
(-0.360815 -0.151583 0)
(-0.331015 -0.159508 0)
(-0.298513 -0.163023 0)
(-0.264064 -0.161882 0)
(-0.228555 -0.156055 0)
(-0.192976 -0.145759 0)
(-0.158357 -0.131465 0)
(-0.125707 -0.113884 0)
(-0.0959342 -0.0939344 0)
(-0.0697812 -0.0726774 0)
(-0.0477684 -0.0512584 0)
(-0.0301594 -0.030843 0)
(-0.0169485 -0.0125718 0)
(-0.00786995 0.00245971 0)
(-0.00242143 0.0131945 0)
(0.00011141 0.0185784 0)
(0.000651454 0.0175135 0)
(0.00018152 0.00879388 0)
(-0.000579291 0.00901213 0)
(-0.00688083 0.0268428 0)
(-0.017845 0.0434851 0)
(-0.0324429 0.0585768 0)
(-0.0497052 0.0722876 0)
(-0.0691547 0.0849492 0)
(-0.0905346 0.096852 0)
(-0.113686 0.108147 0)
(-0.138476 0.118818 0)
(-0.164744 0.128696 0)
(-0.192277 0.137498 0)
(-0.220795 0.144871 0)
(-0.249966 0.150437 0)
(-0.279412 0.153831 0)
(-0.308729 0.154727 0)
(-0.337506 0.152865 0)
(-0.365333 0.148059 0)
(-0.391816 0.140211 0)
(-0.416577 0.129305 0)
(-0.439262 0.115411 0)
(-0.459538 0.0986724 0)
(-0.47709 0.079308 0)
(-0.491626 0.0576032 0)
(-0.502866 0.0339087 0)
(-0.510547 0.00863761 0)
(-0.514425 -0.0177332 0)
(-0.514277 -0.0446628 0)
(-0.509898 -0.0715466 0)
(-0.501115 -0.0977163 0)
(-0.487807 -0.122448 0)
(-0.46992 -0.144977 0)
(-0.447497 -0.164517 0)
(-0.420706 -0.180296 0)
(-0.389875 -0.191603 0)
(-0.355513 -0.197841 0)
(-0.318331 -0.198596 0)
(-0.27923 -0.19369 0)
(-0.23928 -0.183242 0)
(-0.199657 -0.167689 0)
(-0.161572 -0.147789 0)
(-0.126169 -0.124584 0)
(-0.0944383 -0.099337 0)
(-0.06713 -0.0734484 0)
(-0.0446987 -0.0483677 0)
(-0.027278 -0.0255231 0)
(-0.0146866 -0.00628068 0)
(-0.00645703 0.00806171 0)
(-0.00187489 0.0162486 0)
(-1.22178e-05 0.017015 0)
(0.000147179 0.00902535 0)
(-0.000699084 0.0128173 0)
(-0.00806345 0.0364016 0)
(-0.0206913 0.0572994 0)
(-0.0373132 0.0755787 0)
(-0.0567643 0.0917911 0)
(-0.0784791 0.106551 0)
(-0.102156 0.12032 0)
(-0.127608 0.133323 0)
(-0.15468 0.145544 0)
(-0.183193 0.156774 0)
(-0.21291 0.16667 0)
(-0.243537 0.174823 0)
(-0.274728 0.180809 0)
(-0.306104 0.184232 0)
(-0.337265 0.184753 0)
(-0.367812 0.18211 0)
(-0.397351 0.176132 0)
(-0.425504 0.166734 0)
(-0.451914 0.153923 0)
(-0.476242 0.137785 0)
(-0.498172 0.118487 0)
(-0.517407 0.096262 0)
(-0.533667 0.0714134 0)
(-0.546691 0.0443054 0)
(-0.556223 0.015364 0)
(-0.562019 -0.0149224 0)
(-0.563845 -0.0459995 0)
(-0.561463 -0.0772457 0)
(-0.554645 -0.107963 0)
(-0.543181 -0.137382 0)
(-0.526903 -0.164665 0)
(-0.505709 -0.188922 0)
(-0.479608 -0.209241 0)
(-0.448759 -0.224732 0)
(-0.413522 -0.234592 0)
(-0.37449 -0.238184 0)
(-0.332513 -0.235118 0)
(-0.288684 -0.225336 0)
(-0.244295 -0.20917 0)
(-0.200754 -0.187363 0)
(-0.159475 -0.161051 0)
(-0.121748 -0.131695 0)
(-0.0886245 -0.100974 0)
(-0.0608233 -0.0706717 0)
(-0.0386805 -0.0425638 0)
(-0.0221453 -0.0183469 0)
(-0.0108115 0.000391103 0)
(-0.00397232 0.0121557 0)
(-0.000685524 0.015495 0)
(0.000120397 0.00893307 0)
(-0.000810311 0.0172203 0)
(-0.00915785 0.0473148 0)
(-0.0233162 0.072904 0)
(-0.0417881 0.0946013 0)
(-0.0632251 0.113425 0)
(-0.0869787 0.130327 0)
(-0.112702 0.145969 0)
(-0.140182 0.16066 0)
(-0.16924 0.174391 0)
(-0.199676 0.186912 0)
(-0.231236 0.197826 0)
(-0.263614 0.206671 0)
(-0.296457 0.212984 0)
(-0.329386 0.216347 0)
(-0.362008 0.216412 0)
(-0.393935 0.212925 0)
(-0.424785 0.205724 0)
(-0.454197 0.194744 0)
(-0.481828 0.18001 0)
(-0.507361 0.161632 0)
(-0.530504 0.139797 0)
(-0.55099 0.114759 0)
(-0.568576 0.0868375 0)
(-0.583036 0.0564112 0)
(-0.594154 0.0239131 0)
(-0.601713 -0.0101673 0)
(-0.605496 -0.0452799 0)
(-0.605263 -0.0808102 0)
(-0.600749 -0.116062 0)
(-0.591675 -0.150254 0)
(-0.577761 -0.182511 0)
(-0.558754 -0.211871 0)
(-0.534472 -0.237302 0)
(-0.504859 -0.257739 0)
(-0.470055 -0.272154 0)
(-0.430452 -0.279641 0)
(-0.386752 -0.279525 0)
(-0.339985 -0.271481 0)
(-0.29149 -0.255631 0)
(-0.242838 -0.232612 0)
(-0.195715 -0.203584 0)
(-0.151759 -0.170174 0)
(-0.1124 -0.134355 0)
(-0.0787105 -0.0982914 0)
(-0.0513168 -0.0641821 0)
(-0.0303683 -0.0341341 0)
(-0.0155644 -0.0100979 0)
(-0.00622411 0.00613542 0)
(-0.00138588 0.0128882 0)
(9.91518e-05 0.00851443 0)
(-0.00090737 0.0221651 0)
(-0.0101194 0.059449 0)
(-0.0256222 0.0901147 0)
(-0.0457124 0.115426 0)
(-0.0688759 0.136946 0)
(-0.0943867 0.15601 0)
(-0.121855 0.173508 0)
(-0.151036 0.189846 0)
(-0.18173 0.205022 0)
(-0.213716 0.218753 0)
(-0.246727 0.230589 0)
(-0.280444 0.240022 0)
(-0.314509 0.246557 0)
(-0.348543 0.249758 0)
(-0.38216 0.249274 0)
(-0.414974 0.244857 0)
(-0.446616 0.236361 0)
(-0.476736 0.223742 0)
(-0.50501 0.207049 0)
(-0.531147 0.18642 0)
(-0.554891 0.16207 0)
(-0.576024 0.134284 0)
(-0.594357 0.103404 0)
(-0.609729 0.0698236 0)
(-0.621987 0.0339812 0)
(-0.630974 -0.00364277 0)
(-0.636516 -0.0425189 0)
(-0.638404 -0.0820662 0)
(-0.636367 -0.121626 0)
(-0.630084 -0.160446 0)
(-0.619185 -0.197662 0)
(-0.603273 -0.232286 0)
(-0.581969 -0.263207 0)
(-0.55497 -0.289217 0)
(-0.522135 -0.309063 0)
(-0.483571 -0.321543 0)
(-0.439723 -0.325633 0)
(-0.39144 -0.320639 0)
(-0.339997 -0.306348 0)
(-0.287047 -0.283158 0)
(-0.23451 -0.252139 0)
(-0.184391 -0.215009 0)
(-0.138564 -0.174014 0)
(-0.0985567 -0.131741 0)
(-0.0653983 -0.0908896 0)
(-0.0395362 -0.0540827 0)
(-0.0208451 -0.0237354 0)
(-0.00870599 -0.00201865 0)
(-0.00214533 0.00909913 0)
(7.9724e-05 0.00775331 0)
(-0.000984786 0.0275722 0)
(-0.0109058 0.0726247 0)
(-0.0275182 0.108694 0)
(-0.0489435 0.137782 0)
(-0.0735243 0.162057 0)
(-0.100463 0.183283 0)
(-0.129326 0.202598 0)
(-0.159838 0.220517 0)
(-0.191775 0.237053 0)
(-0.224895 0.251889 0)
(-0.258917 0.26453 0)
(-0.29351 0.274428 0)
(-0.328311 0.281057 0)
(-0.36294 0.283969 0)
(-0.397007 0.282813 0)
(-0.430133 0.277349 0)
(-0.461951 0.267451 0)
(-0.492127 0.2531 0)
(-0.520359 0.234382 0)
(-0.546391 0.211472 0)
(-0.57002 0.184629 0)
(-0.591088 0.154176 0)
(-0.609484 0.120491 0)
(-0.625129 0.0839854 0)
(-0.637957 0.045102 0)
(-0.647892 0.00430454 0)
(-0.65483 -0.0379148 0)
(-0.658623 -0.0810296 0)
(-0.659029 -0.124454 0)
(-0.655721 -0.16751 0)
(-0.648274 -0.209399 0)
(-0.63618 -0.249165 0)
(-0.618879 -0.285683 0)
(-0.595822 -0.31765 0)
(-0.566552 -0.343629 0)
(-0.530821 -0.362125 0)
(-0.488715 -0.371723 0)
(-0.440765 -0.371268 0)
(-0.388035 -0.360076 0)
(-0.332127 -0.33814 0)
(-0.275101 -0.306269 0)
(-0.219295 -0.266137 0)
(-0.167062 -0.220194 0)
(-0.120485 -0.171452 0)
(-0.0811204 -0.123191 0)
(-0.0498425 -0.0786704 0)
(-0.0268037 -0.0409059 0)
(-0.0115106 -0.0125687 0)
(-0.00300402 0.00398941 0)
(5.73195e-05 0.00661403 0)
(-0.00103763 0.0333398 0)
(-0.0114792 0.0866207 0)
(-0.0289237 0.128356 0)
(-0.0513567 0.161349 0)
(-0.0770043 0.188418 0)
(-0.105004 0.211786 0)
(-0.134877 0.232861 0)
(-0.166313 0.252273 0)
(-0.199063 0.270058 0)
(-0.232865 0.285872 0)
(-0.267422 0.299178 0)
(-0.302391 0.30939 0)
(-0.337401 0.315959 0)
(-0.372065 0.318423 0)
(-0.405991 0.316435 0)
(-0.438797 0.309769 0)
(-0.470128 0.298322 0)
(-0.499661 0.282115 0)
(-0.52713 0.261278 0)
(-0.552323 0.236045 0)
(-0.575099 0.20673 0)
(-0.595377 0.17371 0)
(-0.613133 0.137406 0)
(-0.628385 0.0982551 0)
(-0.641163 0.0567037 0)
(-0.651485 0.0131935 0)
(-0.659341 -0.0318324 0)
(-0.664658 -0.0779197 0)
(-0.66726 -0.124584 0)
(-0.66685 -0.17126 0)
(-0.662998 -0.217266 0)
(-0.655133 -0.261747 0)
(-0.642566 -0.303636 0)
(-0.624529 -0.341618 0)
(-0.600261 -0.374139 0)
(-0.569127 -0.399457 0)
(-0.53077 -0.415766 0)
(-0.48528 -0.421393 0)
(-0.43334 -0.415057 0)
(-0.376321 -0.396156 0)
(-0.316269 -0.365024 0)
(-0.25575 -0.323087 0)
(-0.19758 -0.272848 0)
(-0.144455 -0.217692 0)
(-0.0985925 -0.161528 0)
(-0.0614452 -0.108383 0)
(-0.0335812 -0.0620396 0)
(-0.0147307 -0.0258321 0)
(-0.00400354 -0.00262564 0)
(2.67756e-05 0.00503927 0)
(-0.00106195 0.0393477 0)
(-0.0118085 0.10118 0)
(-0.0297729 0.148778 0)
(-0.052851 0.18577 0)
(-0.0791826 0.215653 0)
(-0.107846 0.241127 0)
(-0.138316 0.263883 0)
(-0.170245 0.28468 0)
(-0.203356 0.303583 0)
(-0.237367 0.320223 0)
(-0.271961 0.334029 0)
(-0.306784 0.344379 0)
(-0.341455 0.350703 0)
(-0.375578 0.352529 0)
(-0.408756 0.349515 0)
(-0.44061 0.341456 0)
(-0.470795 0.328286 0)
(-0.499014 0.310075 0)
(-0.525038 0.287017 0)
(-0.548715 0.259416 0)
(-0.569972 0.22766 0)
(-0.588812 0.19219 0)
(-0.605302 0.153479 0)
(-0.619555 0.111995 0)
(-0.6317 0.0681877 0)
(-0.641853 0.0224751 0)
(-0.650097 -0.0247557 0)
(-0.656451 -0.0731334 0)
(-0.660824 -0.12229 0)
(-0.662986 -0.171805 0)
(-0.662549 -0.221152 0)
(-0.658945 -0.269639 0)
(-0.65142 -0.316335 0)
(-0.639063 -0.36001 0)
(-0.620858 -0.399093 0)
(-0.595802 -0.431684 0)
(-0.563066 -0.455646 0)
(-0.522201 -0.468779 0)
(-0.473356 -0.469117 0)
(-0.417469 -0.455293 0)
(-0.356353 -0.426917 0)
(-0.292627 -0.384893 0)
(-0.229467 -0.331539 0)
(-0.170193 -0.270469 0)
(-0.117779 -0.206211 0)
(-0.0744235 -0.143669 0)
(-0.0412811 -0.087587 0)
(-0.0184441 -0.0421708 0)
(-0.00518119 -0.0109741 0)
(-1.66974e-05 0.00295102 0)
(-0.00105507 0.0454604 0)
(-0.0118717 0.116019 0)
(-0.0300182 0.169603 0)
(-0.0533532 0.210659 0)
(-0.0799637 0.24336 0)
(-0.108876 0.27089 0)
(-0.139514 0.295234 0)
(-0.171492 0.31729 0)
(-0.204502 0.337156 0)
(-0.238239 0.354451 0)
(-0.272369 0.368568 0)
(-0.306526 0.378857 0)
(-0.340316 0.384724 0)
(-0.373337 0.385696 0)
(-0.405191 0.381441 0)
(-0.435505 0.371782 0)
(-0.463954 0.356704 0)
(-0.490275 0.33634 0)
(-0.514288 0.310966 0)
(-0.535903 0.280969 0)
(-0.555122 0.246821 0)
(-0.57203 0.20904 0)
(-0.586779 0.168151 0)
(-0.599569 0.124658 0)
(-0.610616 0.0790147 0)
(-0.620123 0.0316141 0)
(-0.62826 -0.0172133 0)
(-0.635133 -0.0671816 0)
(-0.640748 -0.118044 0)
(-0.644963 -0.169533 0)
(-0.647477 -0.221309 0)
(-0.647782 -0.272883 0)
(-0.645147 -0.323533 0)
(-0.638604 -0.372205 0)
(-0.626981 -0.417434 0)
(-0.608983 -0.457294 0)
(-0.583339 -0.489426 0)
(-0.549028 -0.511175 0)
(-0.505552 -0.519871 0)
(-0.453221 -0.513251 0)
(-0.393371 -0.489963 0)
(-0.328427 -0.450066 0)
(-0.261735 -0.395362 0)
(-0.197152 -0.329439 0)
(-0.138459 -0.257329 0)
(-0.0887458 -0.184877 0)
(-0.0499497 -0.117981 0)
(-0.0227035 -0.0619698 0)
(-0.00656581 -0.0213159 0)
(-7.71131e-05 0.000253834 0)
(-0.00101587 0.0515335 0)
(-0.0116568 0.130834 0)
(-0.0296324 0.190456 0)
(-0.0528212 0.235613 0)
(-0.0792934 0.271122 0)
(-0.10803 0.300648 0)
(-0.138403 0.326474 0)
(-0.169985 0.349645 0)
(-0.202436 0.370306 0)
(-0.235427 0.388066 0)
(-0.268608 0.40229 0)
(-0.3016 0.412299 0)
(-0.334003 0.417487 0)
(-0.365412 0.417379 0)
(-0.395434 0.411662 0)
(-0.423713 0.400201 0)
(-0.449951 0.383043 0)
(-0.47393 0.360401 0)
(-0.495526 0.332644 0)
(-0.514715 0.300256 0)
(-0.531571 0.263798 0)
(-0.546253 0.223866 0)
(-0.558986 0.181041 0)
(-0.57004 0.135859 0)
(-0.579696 0.088779 0)
(-0.588225 0.0401687 0)
(-0.595861 -0.00969365 0)
(-0.602788 -0.060603 0)
(-0.609101 -0.112425 0)
(-0.614756 -0.165042 0)
(-0.61956 -0.218301 0)
(-0.62312 -0.271942 0)
(-0.6248 -0.325493 0)
(-0.623679 -0.378164 0)
(-0.618549 -0.428712 0)
(-0.607943 -0.475338 0)
(-0.590251 -0.515628 0)
(-0.563922 -0.546612 0)
(-0.527769 -0.564992 0)
(-0.481332 -0.567561 0)
(-0.425232 -0.551816 0)
(-0.361409 -0.516643 0)
(-0.293102 -0.462925 0)
(-0.224521 -0.393838 0)
(-0.160209 -0.314678 0)
(-0.104252 -0.23219 0)
(-0.0595625 -0.15359 0)
(-0.0275296 -0.0856101 0)
(-0.00817608 -0.0339285 0)
(-0.000157769 -0.0031606 0)
(-0.000944903 0.0574188 0)
(-0.011163 0.145314 0)
(-0.0286105 0.210953 0)
(-0.0512458 0.260217 0)
(-0.0771607 0.298516 0)
(-0.105299 0.329972 0)
(-0.134981 0.357166 0)
(-0.165735 0.3813 0)
(-0.197187 0.402575 0)
(-0.228984 0.420599 0)
(-0.260764 0.434716 0)
(-0.29214 0.444227 0)
(-0.322709 0.448513 0)
(-0.352073 0.447106 0)
(-0.379854 0.439725 0)
(-0.405723 0.426289 0)
(-0.429421 0.406917 0)
(-0.450781 0.381918 0)
(-0.469739 0.351762 0)
(-0.486337 0.317033 0)
(-0.500713 0.278385 0)
(-0.513087 0.236489 0)
(-0.523738 0.191977 0)
(-0.532984 0.145411 0)
(-0.541147 0.0972523 0)
(-0.548538 0.0478467 0)
(-0.555429 -0.0025742 0)
(-0.562062 -0.0538771 0)
(-0.568599 -0.106021 0)
(-0.575086 -0.159019 0)
(-0.581448 -0.212889 0)
(-0.587433 -0.26759 0)
(-0.592554 -0.322924 0)
(-0.596032 -0.378411 0)
(-0.596743 -0.433133 0)
(-0.593201 -0.485565 0)
(-0.583604 -0.533435 0)
(-0.565997 -0.573666 0)
(-0.53855 -0.602499 0)
(-0.499974 -0.615856 0)
(-0.449993 -0.609986 0)
(-0.38977 -0.582321 0)
(-0.322104 -0.532388 0)
(-0.25127 -0.462462 0)
(-0.182418 -0.377698 0)
(-0.120647 -0.285562 0)
(-0.0700188 -0.194669 0)
(-0.0329083 -0.113436 0)
(-0.0100197 -0.0490902 0)
(-0.000261567 -0.00740784 0)
(-0.000844378 0.0629709 0)
(-0.0104007 0.159152 0)
(-0.0269699 0.23071 0)
(-0.0486509 0.284063 0)
(-0.0735975 0.325125 0)
(-0.100727 0.358443 0)
(-0.12931 0.386889 0)
(-0.158826 0.411829 0)
(-0.188868 0.433533 0)
(-0.219064 0.45162 0)
(-0.249041 0.465421 0)
(-0.27841 0.474222 0)
(-0.306778 0.477401 0)
(-0.333761 0.474507 0)
(-0.359008 0.465301 0)
(-0.382226 0.449764 0)
(-0.403207 0.428105 0)
(-0.421839 0.400732 0)
(-0.438118 0.368221 0)
(-0.452145 0.331258 0)
(-0.464111 0.290584 0)
(-0.474283 0.246934 0)
(-0.482972 0.200986 0)
(-0.490517 0.153319 0)
(-0.497259 0.104391 0)
(-0.503519 0.0545264 0)
(-0.509581 0.00391813 0)
(-0.515718 -0.0473604 0)
(-0.522132 -0.0993374 0)
(-0.528941 -0.152128 0)
(-0.536175 -0.205889 0)
(-0.543725 -0.260769 0)
(-0.551285 -0.316826 0)
(-0.558277 -0.373907 0)
(-0.563767 -0.431479 0)
(-0.566391 -0.488418 0)
(-0.564342 -0.542782 0)
(-0.555436 -0.591634 0)
(-0.537345 -0.63101 0)
(-0.507994 -0.656151 0)
(-0.46612 -0.662097 0)
(-0.411867 -0.644653 0)
(-0.34725 -0.601579 0)
(-0.27624 -0.53369 0)
(-0.204321 -0.445446 0)
(-0.137517 -0.344665 0)
(-0.0811425 -0.24131 0)
(-0.0387895 -0.145723 0)
(-0.0120934 -0.067062 0)
(-0.000391054 -0.0126052 0)
(-0.000718037 0.0680534 0)
(-0.0093912 0.172051 0)
(-0.0247496 0.249356 0)
(-0.0450923 0.30675 0)
(-0.0686773 0.350547 0)
(-0.0944084 0.385661 0)
(-0.121508 0.415245 0)
(-0.14941 0.440838 0)
(-0.177673 0.462792 0)
(-0.205909 0.48075 0)
(-0.233741 0.494041 0)
(-0.260788 0.501944 0)
(-0.286674 0.503846 0)
(-0.311041 0.499323 0)
(-0.333577 0.488185 0)
(-0.354036 0.47049 0)
(-0.372263 0.44654 0)
(-0.388205 0.416849 0)
(-0.401913 0.382095 0)
(-0.413539 0.343061 0)
(-0.423313 0.300565 0)
(-0.431527 0.255395 0)
(-0.438507 0.20826 0)
(-0.444591 0.159748 0)
(-0.450113 0.110308 0)
(-0.455382 0.0602422 0)
(-0.460672 0.00971053 0)
(-0.466254 -0.0412573 0)
(-0.472348 -0.0927385 0)
(-0.479118 -0.144915 0)
(-0.486673 -0.198042 0)
(-0.495031 -0.252413 0)
(-0.504064 -0.308301 0)
(-0.51342 -0.365854 0)
(-0.522418 -0.424939 0)
(-0.529941 -0.484908 0)
(-0.534342 -0.54431 0)
(-0.533423 -0.600592 0)
(-0.524565 -0.649892 0)
(-0.505061 -0.687068 0)
(-0.472683 -0.706151 0)
(-0.426418 -0.70129 0)
(-0.367184 -0.668172 0)
(-0.29825 -0.605585 0)
(-0.22506 -0.516613 0)
(-0.154349 -0.408863 0)
(-0.0926892 -0.293404 0)
(-0.0450888 -0.182646 0)
(-0.0143827 -0.088071 0)
(-0.000548182 -0.0188663 0)
(-0.000570893 0.0725444 0)
(-0.00816531 0.18374 0)
(-0.0220085 0.266542 0)
(-0.0406556 0.327903 0)
(-0.062511 0.374401 0)
(-0.0864822 0.411253 0)
(-0.111749 0.441872 0)
(-0.1377 0.467976 0)
(-0.163863 0.490013 0)
(-0.189838 0.507668 0)
(-0.215249 0.52028 0)
(-0.239734 0.527137 0)
(-0.262942 0.527639 0)
(-0.284556 0.521401 0)
(-0.30431 0.508294 0)
(-0.322011 0.488457 0)
(-0.337562 0.462289 0)
(-0.350964 0.430406 0)
(-0.362317 0.393586 0)
(-0.37181 0.352695 0)
(-0.379698 0.308614 0)
(-0.386281 0.262173 0)
(-0.391879 0.214096 0)
(-0.396813 0.164969 0)
(-0.401391 0.115227 0)
(-0.405891 0.0651468 0)
(-0.410561 0.0148623 0)
(-0.415645 -0.0356261 0)
(-0.421364 -0.0864259 0)
(-0.427898 -0.137756 0)
(-0.435405 -0.189926 0)
(-0.443999 -0.243323 0)
(-0.453703 -0.298377 0)
(-0.46438 -0.355485 0)
(-0.475627 -0.414879 0)
(-0.48664 -0.476406 0)
(-0.496067 -0.539205 0)
(-0.501899 -0.601313 0)
(-0.501469 -0.659283 0)
(-0.491671 -0.707971 0)
(-0.46946 -0.740728 0)
(-0.43265 -0.75021 0)
(-0.380845 -0.729886 0)
(-0.316227 -0.676023 0)
(-0.243765 -0.589585 0)
(-0.170568 -0.477215 0)
(-0.10436 -0.350617 0)
(-0.0516907 -0.224254 0)
(-0.016862 -0.112293 0)
(-0.000734118 -0.026296 0)
(-0.000408909 0.0763414 0)
(-0.00676208 0.193979 0)
(-0.0188229 0.281952 0)
(-0.0354525 0.347174 0)
(-0.0552437 0.396339 0)
(-0.0771275 0.434881 0)
(-0.10025 0.466447 0)
(-0.123958 0.492937 0)
(-0.147752 0.514912 0)
(-0.171221 0.532116 0)
(-0.194001 0.543918 0)
(-0.215755 0.549621 0)
(-0.236172 0.548657 0)
(-0.254978 0.540684 0)
(-0.271963 0.525641 0)
(-0.286993 0.503752 0)
(-0.300023 0.475511 0)
(-0.311105 0.44163 0)
(-0.320377 0.402974 0)
(-0.328052 0.360479 0)
(-0.334394 0.315075 0)
(-0.339695 0.267616 0)
(-0.344256 0.218831 0)
(-0.348365 0.169295 0)
(-0.352292 0.119419 0)
(-0.356277 0.0694584 0)
(-0.360526 0.0195215 0)
(-0.365248 -0.0304091 0)
(-0.370643 -0.0804544 0)
(-0.376888 -0.130845 0)
(-0.38416 -0.181909 0)
(-0.392633 -0.234079 0)
(-0.402441 -0.287878 0)
(-0.413625 -0.343879 0)
(-0.42604 -0.402615 0)
(-0.439212 -0.464388 0)
(-0.452164 -0.528955 0)
(-0.463228 -0.595079 0)
(-0.469927 -0.660003 0)
(-0.469031 -0.718973 0)
(-0.456927 -0.765107 0)
(-0.430372 -0.78991 0)
(-0.387574 -0.784696 0)
(-0.329313 -0.742868 0)
(-0.259634 -0.662544 0)
(-0.185591 -0.548506 0)
(-0.115822 -0.412382 0)
(-0.0584549 -0.27045 0)
(-0.0194957 -0.13984 0)
(-0.000949047 -0.0349856 0)
(-0.000238605 0.0793653 0)
(-0.00522676 0.202568 0)
(-0.0152834 0.29531 0)
(-0.0296166 0.364255 0)
(-0.0470481 0.416047 0)
(-0.066556 0.456245 0)
(-0.0872647 0.48869 0)
(-0.108485 0.515464 0)
(-0.12969 0.537259 0)
(-0.150467 0.553899 0)
(-0.170467 0.564797 0)
(-0.189387 0.569291 0)
(-0.20696 0.566851 0)
(-0.222968 0.557188 0)
(-0.237258 0.540311 0)
(-0.249752 0.516528 0)
(-0.260458 0.48642 0)
(-0.269468 0.450787 0)
(-0.276947 0.410565 0)
(-0.283118 0.366746 0)
(-0.28824 0.320292 0)
(-0.292586 0.272068 0)
(-0.296424 0.222797 0)
(-0.300005 0.173032 0)
(-0.303552 0.123161 0)
(-0.307261 0.0734122 0)
(-0.311297 0.0238758 0)
(-0.315822 -0.0254773 0)
(-0.32101 -0.0747698 0)
(-0.327019 -0.124226 0)
(-0.334022 -0.174166 0)
(-0.342218 -0.225025 0)
(-0.351809 -0.277362 0)
(-0.362964 -0.331855 0)
(-0.375747 -0.389249 0)
(-0.389986 -0.450221 0)
(-0.405093 -0.515105 0)
(-0.419835 -0.583442 0)
(-0.432108 -0.653351 0)
(-0.438834 -0.720835 0)
(-0.436137 -0.779272 0)
(-0.419959 -0.819509 0)
(-0.387165 -0.830993 0)
(-0.336947 -0.804139 0)
(-0.272011 -0.733596 0)
(-0.198873 -0.62132 0)
(-0.126735 -0.477916 0)
(-0.065226 -0.320989 0)
(-0.0222402 -0.170748 0)
(-0.00119203 -0.0450079 0)