/*--------------------------------*- C++ -*----------------------------------*\
  =========                 |
  \\      /  F ield         | OpenFOAM: The Open Source CFD Toolbox
   \\    /   O peration     | Website:  https://openfoam.org
    \\  /    A nd           | Version:  7
     \\/     M anipulation  |
\*---------------------------------------------------------------------------*/
FoamFile
{
    version     2.0;
    format      ascii;
    class       volScalarField;
    location    "1150";
    object      p;
}
// * * * * * * * * * * * * * * * * * * * * * * * * * * * * * * * * * * * * * //

dimensions      [0 2 -2 0 0 0 0];

internalField   nonuniform List<scalar> 
2500
(
6.27397e-07
7.20947e-05
-7.72487e-06
-0.000306528
-0.000780929
-0.00136849
-0.00202902
-0.00275799
-0.00358111
-0.00453904
-0.00567185
-0.00700941
-0.00856865
-0.0103493
-0.0123279
-0.0144503
-0.0166243
-0.0187184
-0.0205676
-0.0219898
-0.0228101
-0.0228893
-0.0221519
-0.0206145
-0.0184028
-0.0157431
-0.0129569
-0.0104616
-0.0087191
-0.00816715
-0.00913871
-0.0117706
-0.0159505
-0.0213828
-0.027608
-0.0340647
-0.040224
-0.045685
-0.0502168
-0.0537442
-0.0563173
-0.0580711
-0.0591799
-0.0598198
-0.0601427
-0.0602648
-0.0602639
-0.0601826
-0.0600433
-0.0599042
-6.8024e-05
4.88078e-06
-7.88936e-05
-0.000375347
-0.000827746
-0.00137193
-0.00197276
-0.00263169
-0.00337732
-0.00424995
-0.00528842
-0.00652267
-0.0079734
-0.00964835
-0.0115359
-0.0135992
-0.0157674
-0.0179289
-0.019931
-0.0215898
-0.022713
-0.0231306
-0.0227289
-0.0214835
-0.0194896
-0.0169641
-0.0142441
-0.0117651
-0.0100078
-0.00942921
-0.0103779
-0.0130129
-0.0172504
-0.0227408
-0.0289819
-0.0354256
-0.0415175
-0.0468168
-0.0510842
-0.0542928
-0.0565603
-0.0580682
-0.0590102
-0.0595589
-0.0598505
-0.0599823
-0.0600162
-0.0599816
-0.0598801
-0.0597484
-1.7909e-05
5.0794e-05
-5.61202e-05
-0.000378597
-0.000831017
-0.00133762
-0.00186822
-0.00243564
-0.00308093
-0.00385165
-0.0047919
-0.00594205
-0.00734014
-0.00902062
-0.0110034
-0.0132775
-0.0157825
-0.0183967
-0.0209376
-0.023179
-0.0248813
-0.0258308
-0.0258759
-0.0249654
-0.0231918
-0.0207823
-0.0180739
-0.0155004
-0.0135543
-0.0127162
-0.0133679
-0.0157075
-0.0196903
-0.0250145
-0.0311712
-0.0375391
-0.0435405
-0.0487331
-0.0528362
-0.0557845
-0.0577081
-0.0588524
-0.0594712
-0.059769
-0.0598906
-0.0599254
-0.0599202
-0.0598847
-0.0597888
-0.0596445
0.00022937
0.00026742
0.000102962
-0.000278357
-0.000754166
-0.0012355
-0.00170141
-0.00218401
-0.00274436
-0.00345352
-0.00438489
-0.00561793
-0.00723751
-0.00932061
-0.0119101
-0.0149859
-0.0184448
-0.0220986
-0.0256913
-0.0289322
-0.0315369
-0.033266
-0.0339546
-0.0335391
-0.0320914
-0.0298141
-0.0270196
-0.024129
-0.0216372
-0.020051
-0.0198079
-0.0211875
-0.0242389
-0.0287491
-0.0342676
-0.0401914
-0.0458981
-0.0508686
-0.0548075
-0.057625
-0.0593724
-0.0602613
-0.0605729
-0.0605672
-0.0604288
-0.0602672
-0.060133
-0.0600271
-0.0598971
-0.0597322
0.000708736
0.000678599
0.00041939
-4.28018e-05
-0.000554017
-0.00102792
-0.00145901
-0.00190727
-0.00247342
-0.0032794
-0.00446226
-0.00616985
-0.00854144
-0.0116726
-0.0155776
-0.0201657
-0.0252404
-0.0305208
-0.0356764
-0.0403662
-0.0442757
-0.0471475
-0.0488033
-0.0491586
-0.048243
-0.0462021
-0.0433011
-0.0399251
-0.0365462
-0.0336796
-0.0318177
-0.0313485
-0.0324738
-0.0351505
-0.0390784
-0.0437522
-0.0485719
-0.0529767
-0.0565665
-0.0591541
-0.0607732
-0.0615799
-0.0617656
-0.0615805
-0.0612437
-0.0608985
-0.0606186
-0.060417
-0.0602407
-0.0600638
0.00146397
0.00132991
0.000950503
0.000398871
-0.0001673
-0.000673835
-0.00114542
-0.00169489
-0.00249152
-0.00374149
-0.00567045
-0.00849246
-0.0123632
-0.0173337
-0.0233239
-0.0301259
-0.0374302
-0.0448653
-0.0520379
-0.0585679
-0.0641182
-0.0684182
-0.07128
-0.0726048
-0.0723908
-0.0707224
-0.0677973
-0.0639363
-0.0595473
-0.0551059
-0.0511148
-0.0480453
-0.0462631
-0.0459548
-0.0470741
-0.0493376
-0.0522827
-0.0553797
-0.0581616
-0.0603185
-0.06173
-0.0624447
-0.0626267
-0.0624387
-0.0620523
-0.0616266
-0.0612609
-0.0609925
-0.0607872
-0.0606157
0.00253352
0.00227068
0.00176187
0.00111034
0.000453385
-0.000165894
-0.000835646
-0.00175155
-0.00318308
-0.00544035
-0.00882531
-0.0135672
-0.0197628
-0.0273453
-0.03609
-0.0456484
-0.0555963
-0.0654804
-0.0748586
-0.0833311
-0.090563
-0.0962983
-0.100364
-0.102671
-0.103212
-0.10204
-0.0992792
-0.0951649
-0.0899994
-0.0841561
-0.0780666
-0.0721972
-0.0670057
-0.0628815
-0.0600767
-0.0586485
-0.0584382
-0.0591073
-0.0602285
-0.0613997
-0.0623331
-0.0628891
-0.0630667
-0.0629537
-0.0626541
-0.0622792
-0.0619286
-0.0616599
-0.0614642
-0.061319
0.00392378
0.0035248
0.00288575
0.00211204
0.00129675
0.000412131
-0.000727129
-0.00243021
-0.00508219
-0.00907711
-0.0147305
-0.0221984
-0.0314339
-0.0421925
-0.0540749
-0.0665877
-0.0792039
-0.0914137
-0.102762
-0.112872
-0.121455
-0.128314
-0.133323
-0.13642
-0.137624
-0.136995
-0.134605
-0.130598
-0.12516
-0.11852
-0.110966
-0.10285
-0.0945822
-0.0866206
-0.0794253
-0.0733969
-0.0687994
-0.0656967
-0.0639316
-0.0631717
-0.063013
-0.0630945
-0.0631714
-0.0631373
-0.062988
-0.0627651
-0.0625314
-0.0623406
-0.0622004
-0.0620997
0.00557996
0.00505178
0.0042775
0.00333909
0.00224092
0.000844736
-0.00116166
-0.00421423
-0.00879032
-0.0152982
-0.0239674
-0.0347833
-0.0474845
-0.0616131
-0.0765916
-0.0918031
-0.10666
-0.12065
-0.133364
-0.144505
-0.153876
-0.161365
-0.166917
-0.17051
-0.17219
-0.172053
-0.170145
-0.166544
-0.161335
-0.154619
-0.146523
-0.137218
-0.126949
-0.116065
-0.105029
-0.0944127
-0.0848354
-0.0768562
-0.0708367
-0.0668277
-0.064551
-0.0635089
-0.0631675
-0.0631124
-0.0631131
-0.0630936
-0.063049
-0.0630022
-0.0629572
-0.0629122
0.00735163
0.00670843
0.00578778
0.00460272
0.00302445
0.000774073
-0.00260049
-0.00764006
-0.0148441
-0.0245298
-0.036733
-0.0511878
-0.0673784
-0.0846339
-0.102233
-0.119497
-0.135851
-0.150856
-0.164211
-0.175735
-0.185341
-0.193008
-0.198745
-0.202568
-0.204539
-0.204785
-0.203341
-0.200249
-0.195542
-0.18924
-0.181351
-0.171891
-0.160909
-0.148534
-0.135041
-0.120908
-0.106845
-0.0937426
-0.0825237
-0.0738955
-0.0681079
-0.0648603
-0.0634515
-0.0630901
-0.0631653
-0.0633469
-0.063527
-0.063665
-0.0637401
-0.0637547
0.00898077
0.00824154
0.00713902
0.00557433
0.00325033
-0.000266009
-0.00555003
-0.0131839
-0.0235852
-0.0368666
-0.0527824
-0.070772
-0.0900702
-0.109841
-0.129298
-0.147792
-0.164847
-0.18016
-0.193569
-0.205015
-0.214506
-0.222088
-0.22781
-0.23171
-0.233852
-0.234364
-0.233278
-0.230627
-0.226426
-0.220669
-0.213318
-0.204304
-0.193541
-0.180962
-0.166584
-0.150606
-0.13352
-0.116195
-0.0998392
-0.0857909
-0.0751209
-0.0682231
-0.0646537
-0.063385
-0.0633125
-0.0636557
-0.0640545
-0.0643902
-0.0645952
-0.06467
0.0101139
0.00928352
0.00793201
0.00581041
0.00243405
-0.0027734
-0.0104598
-0.0211539
-0.0350787
-0.0520494
-0.0714906
-0.092554
-0.114281
-0.135763
-0.156254
-0.175224
-0.192359
-0.207513
-0.220659
-0.231831
-0.241096
-0.248529
-0.254193
-0.258129
-0.260389
-0.261083
-0.260237
-0.257883
-0.254041
-0.248711
-0.241857
-0.233403
-0.223222
-0.211148
-0.197013
-0.180727
-0.162412
-0.142582
-0.122289
-0.103111
-0.0868442
-0.0749031
-0.0677052
-0.0644869
-0.0637706
-0.0641369
-0.0647324
-0.0652603
-0.0655974
-0.0657355
0.0103222
0.00938649
0.00769485
0.0048175
8.66495e-05
-0.00718041
-0.0176265
-0.0316225
-0.0491018
-0.0695282
-0.0920007
-0.115441
-0.138797
-0.161196
-0.182029
-0.200945
-0.217807
-0.232611
-0.245422
-0.256327
-0.265413
-0.272753
-0.278403
-0.282395
-0.28476
-0.285592
-0.2849
-0.282717
-0.279071
-0.273974
-0.267416
-0.259351
-0.249679
-0.238237
-0.224799
-0.209109
-0.190976
-0.170453
-0.148091
-0.125175
-0.103721
-0.0860184
-0.0737471
-0.0671316
-0.0648547
-0.0648994
-0.065644
-0.0663561
-0.0668336
-0.0670469
0.00916106
0.0080946
0.0059611
0.00214075
-0.00419087
-0.0137656
-0.0271332
-0.0444147
-0.0651947
-0.0885812
-0.1134
-0.138441
-0.162669
-0.185348
-0.20606
-0.224649
-0.241124
-0.255579
-0.268126
-0.278865
-0.287872
-0.295204
-0.300901
-0.304979
-0.307453
-0.308399
-0.307816
-0.305733
-0.302176
-0.297169
-0.29072
-0.282819
-0.273416
-0.262407
-0.249606
-0.234741
-0.217477
-0.197529
-0.174888
-0.150186
-0.125024
-0.101961
-0.083793
-0.0722702
-0.0670835
-0.066109
-0.0668401
-0.0677446
-0.0683867
-0.0687006
0.00625395
0.00502435
0.00235675
-0.00254833
-0.0106288
-0.0225991
-0.0388349
-0.0591452
-0.0827503
-0.108444
-0.134867
-0.160787
-0.185285
-0.207819
-0.228176
-0.246358
-0.26248
-0.27668
-0.289075
-0.299752
-0.308764
-0.316148
-0.321927
-0.326104
-0.328683
-0.32973
-0.329238
-0.327228
-0.323723
-0.318744
-0.312308
-0.304425
-0.295087
-0.284253
-0.271819
-0.25759
-0.241252
-0.222394
-0.200633
-0.175923
-0.149053
-0.122096
-0.0982781
-0.0808292
-0.0711978
-0.0680765
-0.0683933
-0.069487
-0.0703298
-0.0707864
0.00136185
-6.15286e-05
-0.00332691
-0.00938832
-0.0192451
-0.033531
-0.0523878
-0.0752873
-0.101112
-0.128414
-0.155753
-0.18197
-0.206327
-0.22849
-0.248419
-0.266233
-0.282091
-0.296138
-0.308473
-0.319154
-0.328212
-0.335667
-0.34153
-0.345798
-0.34847
-0.349602
-0.349193
-0.347254
-0.3438
-0.338848
-0.332412
-0.324506
-0.315142
-0.304318
-0.292005
-0.278109
-0.262426
-0.244597
-0.224123
-0.200519
-0.17375
-0.144911
-0.116772
-0.0933458
-0.0780251
-0.0713267
-0.0704684
-0.0716487
-0.0727397
-0.0733953
-0.00556813
-0.00720639
-0.0110926
-0.0183024
-0.0298437
-0.0462195
-0.0673068
-0.0922506
-0.119651
-0.147911
-0.1756
-0.201703
-0.225681
-0.247389
-0.266915
-0.284436
-0.300119
-0.314088
-0.32641
-0.337118
-0.346225
-0.353738
-0.359667
-0.364006
-0.366751
-0.367954
-0.36762
-0.365751
-0.362359
-0.357454
-0.351045
-0.343142
-0.333755
-0.322898
-0.310583
-0.296794
-0.281448
-0.264326
-0.245009
-0.222884
-0.197368
-0.168534
-0.138047
-0.109676
-0.0881993
-0.0765356
-0.0733841
-0.0743321
-0.0757302
-0.0766337
-0.0143882
-0.0162483
-0.0207353
-0.029012
-0.0420479
-0.0601848
-0.0830328
-0.109449
-0.137824
-0.166497
-0.19412
-0.219851
-0.243345
-0.2646
-0.283781
-0.301082
-0.316651
-0.330576
-0.342898
-0.353626
-0.362763
-0.370312
-0.376282
-0.38067
-0.383468
-0.384727
-0.384457
-0.382655
-0.37933
-0.37449
-0.368139
-0.360279
-0.350916
-0.340062
-0.327736
-0.313961
-0.298742
-0.282002
-0.26349
-0.242693
-0.218847
-0.191304
-0.160457
-0.128958
-0.101879
-0.0843476
-0.0776001
-0.077698
-0.0794251
-0.0806135
-0.0247706
-0.0268436
-0.0318738
-0.0410798
-0.0553557
-0.0748725
-0.0989946
-0.126347
-0.155187
-0.18386
-0.211142
-0.236369
-0.259355
-0.280197
-0.299095
-0.316228
-0.331713
-0.345603
-0.357914
-0.368643
-0.377787
-0.385349
-0.391339
-0.395756
-0.398594
-0.399894
-0.399678
-0.397935
-0.394677
-0.389907
-0.383629
-0.375843
-0.36655
-0.355754
-0.343467
-0.32972
-0.314554
-0.297989
-0.279945
-0.260109
-0.237817
-0.212123
-0.182419
-0.149841
-0.118617
-0.0951394
-0.0836222
-0.0819769
-0.08393
-0.0854477
-0.0362535
-0.0385159
-0.0440049
-0.0539695
-0.0692026
-0.089712
-0.114655
-0.142486
-0.171396
-0.199785
-0.226571
-0.251249
-0.27375
-0.29423
-0.312892
-0.329887
-0.345295
-0.359142
-0.371426
-0.382136
-0.391268
-0.398826
-0.404821
-0.409256
-0.412122
-0.413453
-0.413281
-0.411589
-0.40839
-0.403688
-0.397487
-0.389788
-0.38059
-0.369893
-0.357703
-0.34404
-0.328947
-0.312488
-0.294697
-0.275467
-0.254369
-0.230511
-0.202761
-0.170864
-0.137445
-0.108854
-0.0918786
-0.0874618
-0.0893354
-0.0912556
-0.0483014
-0.0507167
-0.0565651
-0.0671071
-0.0830176
-0.104163
-0.12954
-0.157491
-0.186193
-0.214129
-0.240351
-0.264486
-0.286546
-0.306713
-0.325172
-0.342043
-0.357373
-0.371164
-0.383405
-0.394082
-0.40319
-0.410735
-0.416727
-0.421171
-0.424058
-0.425411
-0.425275
-0.423626
-0.420477
-0.415835
-0.409705
-0.402092
-0.392997
-0.38242
-0.370362
-0.356835
-0.341872
-0.325537
-0.30792
-0.289059
-0.268777
-0.246437
-0.220833
-0.190786
-0.15712
-0.124965
-0.102567
-0.0944327
-0.0957338
-0.0981496
-0.060364
-0.0628852
-0.0689891
-0.0799342
-0.0962684
-0.117747
-0.143252
-0.171065
-0.199385
-0.226787
-0.252441
-0.276071
-0.297741
-0.317635
-0.335915
-0.352667
-0.367913
-0.38164
-0.393829
-0.404465
-0.413546
-0.421073
-0.427057
-0.431507
-0.434409
-0.435778
-0.43567
-0.434056
-0.430949
-0.426357
-0.42029
-0.412754
-0.403755
-0.393297
-0.381385
-0.368025
-0.353239
-0.33708
-0.319643
-0.301046
-0.281305
-0.260091
-0.236426
-0.208758
-0.176406
-0.142572
-0.11554
-0.103081
-0.103234
-0.106186
-0.0719267
-0.0745029
-0.0807572
-0.0919482
-0.10849
-0.13006
-0.155469
-0.182979
-0.210829
-0.237681
-0.262803
-0.285984
-0.307315
-0.326971
-0.345089
-0.361727
-0.376887
-0.390546
-0.402681
-0.413276
-0.422328
-0.429838
-0.435815
-0.440267
-0.443182
-0.44456
-0.444476
-0.442889
-0.439814
-0.435263
-0.429245
-0.421773
-0.412858
-0.402509
-0.390736
-0.377548
-0.362963
-0.347022
-0.329807
-0.311457
-0.292107
-0.271694
-0.249594
-0.224331
-0.194283
-0.160583
-0.130282
-0.11342
-0.111891
-0.115305
-0.0825706
-0.0851079
-0.0914288
-0.102727
-0.119302
-0.140781
-0.165944
-0.193057
-0.220414
-0.246748
-0.271396
-0.294192
-0.315234
-0.334685
-0.352658
-0.369189
-0.384267
-0.397861
-0.409946
-0.420506
-0.429534
-0.437031
-0.443002
-0.447455
-0.450381
-0.451764
-0.451698
-0.45013
-0.447079
-0.442556
-0.436575
-0.429151
-0.420301
-0.410041
-0.398389
-0.385361
-0.370977
-0.35527
-0.338312
-0.320234
-0.301221
-0.281396
-0.260486
-0.237355
-0.210035
-0.177912
-0.145984
-0.125207
-0.121609
-0.125266
-0.0919785
-0.0943229
-0.100644
-0.111943
-0.128411
-0.149669
-0.174491
-0.201174
-0.228058
-0.253933
-0.278182
-0.300659
-0.321462
-0.34074
-0.358585
-0.375021
-0.390026
-0.403565
-0.415611
-0.426145
-0.435159
-0.44265
-0.448619
-0.453076
-0.456009
-0.4574
-0.457344
-0.45579
-0.452752
-0.448244
-0.442283
-0.434887
-0.42608
-0.415885
-0.404327
-0.391432
-0.377227
-0.361747
-0.345056
-0.327273
-0.308594
-0.289241
-0.269226
-0.247841
-0.223238
-0.193624
-0.161676
-0.137912
-0.132043
-0.135646
-0.0999018
-0.101918
-0.108131
-0.119353
-0.135613
-0.156552
-0.180983
-0.207238
-0.233699
-0.259193
-0.283122
-0.305348
-0.32596
-0.345096
-0.362836
-0.379193
-0.394141
-0.407641
-0.419663
-0.430186
-0.439198
-0.446693
-0.45267
-0.457133
-0.460076
-0.461479
-0.461428
-0.459881
-0.456845
-0.452338
-0.446378
-0.438988
-0.430196
-0.420034
-0.408536
-0.395737
-0.381674
-0.36639
-0.34995
-0.332463
-0.31412
-0.295188
-0.275868
-0.255853
-0.233684
-0.207015
-0.176375
-0.150786
-0.142651
-0.145906
-0.106174
-0.107774
-0.113736
-0.124806
-0.140788
-0.161351
-0.185363
-0.21121
-0.237306
-0.262496
-0.286185
-0.308223
-0.328692
-0.347718
-0.365377
-0.381678
-0.396589
-0.410071
-0.422088
-0.432618
-0.441645
-0.449159
-0.455154
-0.459632
-0.462587
-0.464001
-0.463952
-0.462411
-0.459367
-0.454846
-0.448869
-0.441461
-0.432654
-0.422488
-0.411008
-0.398258
-0.384288
-0.369151
-0.352918
-0.335699
-0.317679
-0.299138
-0.280386
-0.261431
-0.241301
-0.21761
-0.189211
-0.162984
-0.152796
-0.155474
-0.110728
-0.111854
-0.117417
-0.128241
-0.143886
-0.164018
-0.187588
-0.213042
-0.238831
-0.2638
-0.287334
-0.30926
-0.329644
-0.348602
-0.36621
-0.382478
-0.397376
-0.410862
-0.422897
-0.433455
-0.442514
-0.45006
-0.456083
-0.460578
-0.463541
-0.464959
-0.464907
-0.463369
-0.460309
-0.455761
-0.449748
-0.442296
-0.433443
-0.423237
-0.411731
-0.398981
-0.385046
-0.369993
-0.353904
-0.336897
-0.319156
-0.300968
-0.282697
-0.264568
-0.246071
-0.225129
-0.199496
-0.173687
-0.161847
-0.163811
-0.113592
-0.114213
-0.119241
-0.129706
-0.144948
-0.164595
-0.187685
-0.212741
-0.238251
-0.263053
-0.286499
-0.308377
-0.328729
-0.347664
-0.365258
-0.381528
-0.396447
-0.40997
-0.422058
-0.432676
-0.4418
-0.44941
-0.455492
-0.460037
-0.463037
-0.464477
-0.464401
-0.462832
-0.459723
-0.455109
-0.449017
-0.441482
-0.432547
-0.422262
-0.410684
-0.397879
-0.383918
-0.368879
-0.352858
-0.335985
-0.318454
-0.300556
-0.282688
-0.26521
-0.247987
-0.229424
-0.206737
-0.182185
-0.169233
-0.170434
-0.114874
-0.114991
-0.119363
-0.129329
-0.144082
-0.163175
-0.185728
-0.210357
-0.235593
-0.260262
-0.28367
-0.305557
-0.325929
-0.344884
-0.362502
-0.378806
-0.393775
-0.407366
-0.419536
-0.430244
-0.43946
-0.447159
-0.453321
-0.457932
-0.460984
-0.462463
-0.462389
-0.460801
-0.457641
-0.45295
-0.446762
-0.439108
-0.430035
-0.419603
-0.407877
-0.394938
-0.380872
-0.365768
-0.34973
-0.332901
-0.315488
-0.297796
-0.280244
-0.263275
-0.24703
-0.230426
-0.21061
-0.187906
-0.174456
-0.174926
-0.114749
-0.1144
-0.118019
-0.127313
-0.141455
-0.159897
-0.181828
-0.205966
-0.230897
-0.255438
-0.27884
-0.300781
-0.321224
-0.340246
-0.357928
-0.374303
-0.389358
-0.403053
-0.415339
-0.426173
-0.435515
-0.443334
-0.449604
-0.454305
-0.457424
-0.458949
-0.458882
-0.457273
-0.454055
-0.449271
-0.442962
-0.43516
-0.425915
-0.415292
-0.403366
-0.39022
-0.375951
-0.360665
-0.344488
-0.327588
-0.310185
-0.292594
-0.275257
-0.258668
-0.243161
-0.228109
-0.210926
-0.19042
-0.177091
-0.176921
-0.113448
-0.112703
-0.115507
-0.123935
-0.137296
-0.154953
-0.176137
-0.199672
-0.224219
-0.248594
-0.271992
-0.294017
-0.314574
-0.333712
-0.351506
-0.367996
-0.383179
-0.397019
-0.409465
-0.420465
-0.429974
-0.43795
-0.444361
-0.44918
-0.452388
-0.453971
-0.453918
-0.452288
-0.449006
-0.444115
-0.437659
-0.429675
-0.420214
-0.409345
-0.397151
-0.383723
-0.369166
-0.3536
-0.337168
-0.320052
-0.302505
-0.284879
-0.267636
-0.2513
-0.236333
-0.222464
-0.207585
-0.189416
-0.176769
-0.176096
-0.111233
-0.110191
-0.112165
-0.11953
-0.131894
-0.148586
-0.16885
-0.191618
-0.215642
-0.239758
-0.263111
-0.285225
-0.30593
-0.325232
-0.343191
-0.35985
-0.375212
-0.389245
-0.401898
-0.413113
-0.422833
-0.431011
-0.437602
-0.442573
-0.445898
-0.447558
-0.447536
-0.445885
-0.442538
-0.437529
-0.430903
-0.422703
-0.412982
-0.401811
-0.389279
-0.375483
-0.36054
-0.34458
-0.327764
-0.310298
-0.292464
-0.274643
-0.257339
-0.241111
-0.226503
-0.213493
-0.200549
-0.184691
-0.173166
-0.172152
-0.108384
-0.107159
-0.10834
-0.114474
-0.125592
-0.141085
-0.160207
-0.181985
-0.205282
-0.228982
-0.252196
-0.274365
-0.295234
-0.314747
-0.332931
-0.349822
-0.365425
-0.379712
-0.39263
-0.404114
-0.4141
-0.422528
-0.429346
-0.434511
-0.437987
-0.43975
-0.439782
-0.438115
-0.434707
-0.429571
-0.422757
-0.41431
-0.404285
-0.392755
-0.379812
-0.365562
-0.350126
-0.333649
-0.316312
-0.298344
-0.280061
-0.261884
-0.244364
-0.228094
-0.213668
-0.201217
-0.189826
-0.176122
-0.165998
-0.164809
-0.105168
-0.103874
-0.104351
-0.109151
-0.118769
-0.132782
-0.150484
-0.170991
-0.19329
-0.216345
-0.23926
-0.261404
-0.282425
-0.302184
-0.320659
-0.337859
-0.353782
-0.368398
-0.381651
-0.393473
-0.403789
-0.412528
-0.419627
-0.425032
-0.428702
-0.430602
-0.430711
-0.429046
-0.425582
-0.420317
-0.413299
-0.404577
-0.394206
-0.382261
-0.368835
-0.354038
-0.338
-0.32088
-0.302875
-0.284246
-0.265345
-0.24664
-0.228734
-0.21227
-0.197884
-0.185709
-0.175475
-0.163671
-0.155018
-0.153793
-0.10182
-0.100553
-0.10046
-0.103914
-0.111819
-0.124044
-0.139995
-0.15889
-0.179852
-0.201956
-0.224337
-0.246313
-0.267433
-0.287459
-0.30629
-0.323889
-0.34023
-0.355272
-0.368953
-0.381197
-0.39192
-0.401041
-0.408486
-0.414191
-0.418103
-0.420182
-0.420399
-0.418759
-0.415252
-0.409859
-0.402626
-0.393605
-0.382849
-0.370434
-0.356451
-0.341016
-0.324266
-0.306372
-0.287553
-0.268101
-0.248411
-0.229005
-0.210541
-0.193716
-0.179221
-0.167116
-0.157626
-0.147377
-0.140036
-0.138849
-0.0985269
-0.0973558
-0.0968545
-0.0990564
-0.105121
-0.115257
-0.129082
-0.145964
-0.165184
-0.185958
-0.207492
-0.229085
-0.250199
-0.27048
-0.289726
-0.307823
-0.3247
-0.34029
-0.354516
-0.367289
-0.378518
-0.388109
-0.395978
-0.40205
-0.406264
-0.408572
-0.408938
-0.407353
-0.403821
-0.398307
-0.390854
-0.381513
-0.370338
-0.3574
-0.342792
-0.32663
-0.309059
-0.290263
-0.270486
-0.250056
-0.229414
-0.20914
-0.189953
-0.172604
-0.157819
-0.145646
-0.136478
-0.127364
-0.120953
-0.119745
-0.0954182
-0.0943832
-0.0936431
-0.0947786
-0.0989955
-0.1068
-0.118107
-0.132525
-0.149535
-0.16853
-0.18883
-0.20975
-0.230686
-0.251167
-0.270864
-0.289562
-0.30711
-0.323395
-0.33831
-0.351748
-0.363604
-0.373774
-0.382163
-0.388686
-0.393273
-0.395868
-0.396431
-0.39494
-0.391408
-0.385787
-0.378115
-0.368441
-0.356817
-0.34331
-0.328012
-0.311042
-0.29255
-0.272738
-0.251873
-0.230323
-0.208582
-0.18729
-0.167228
-0.149194
-0.133944
-0.121531
-0.112296
-0.103816
-0.0977567
-0.0962463
-0.0925716
-0.0916911
-0.0908656
-0.0911803
-0.0936683
-0.0989995
-0.107424
-0.118892
-0.133174
-0.149887
-0.168503
-0.188394
-0.208914
-0.229483
-0.249634
-0.269017
-0.287377
-0.304522
-0.320298
-0.334565
-0.347198
-0.35808
-0.367104
-0.374178
-0.379224
-0.382179
-0.382998
-0.381648
-0.378146
-0.372441
-0.364558
-0.354544
-0.34245
-0.328339
-0.312301
-0.294455
-0.274962
-0.254039
-0.231982
-0.209199
-0.18624
-0.163805
-0.142735
-0.123866
-0.10797
-0.0950609
-0.0854337
-0.0769602
-0.0704989
-0.0680107
-0.0900196
-0.0893019
-0.0885137
-0.0882663
-0.0892409
-0.0920802
-0.0973299
-0.105375
-0.116385
-0.130278
-0.146721
-0.165176
-0.184987
-0.205476
-0.226034
-0.246156
-0.265454
-0.283629
-0.300451
-0.315734
-0.329319
-0.34107
-0.350868
-0.358613
-0.364219
-0.367618
-0.368762
-0.367614
-0.36418
-0.358422
-0.350348
-0.340001
-0.32743
-0.312696
-0.295887
-0.277127
-0.256584
-0.234492
-0.211178
-0.187092
-0.162836
-0.139168
-0.116975
-0.0971219
-0.0803713
-0.0666576
-0.0563226
-0.0470657
-0.0393818
-0.0346383
-0.0877535
-0.0872115
-0.0865509
-0.0859651
-0.0856746
-0.0861094
-0.0880064
-0.0922245
-0.0994437
-0.109981
-0.123758
-0.140357
-0.159133
-0.179328
-0.200194
-0.221064
-0.241391
-0.260746
-0.278797
-0.295286
-0.310011
-0.322806
-0.333534
-0.342085
-0.348368
-0.352312
-0.353863
-0.352985
-0.349673
-0.343906
-0.335674
-0.325018
-0.311985
-0.296638
-0.279063
-0.259389
-0.237793
-0.214529
-0.189953
-0.164552
-0.138971
-0.114014
-0.0905944
-0.0695835
-0.0517169
-0.0368501
-0.0254318
-0.0144618
-0.00504366
0.0039299
-0.0857165
-0.0853803
-0.0849171
-0.0841445
-0.0827899
-0.0809569
-0.0794508
-0.0795741
-0.0825882
-0.0893055
-0.0999692
-0.114321
-0.131742
-0.15141
-0.172445
-0.194019
-0.215416
-0.236056
-0.255485
-0.273355
-0.289399
-0.303411
-0.315231
-0.324734
-0.331821
-0.336418
-0.338471
-0.337943
-0.334823
-0.329106
-0.320771
-0.309854
-0.296408
-0.280495
-0.262206
-0.241674
-0.219089
-0.194723
-0.168953
-0.142296
-0.115421
-0.0891454
-0.0643795
-0.0419676
-0.0225987
-0.00608651
0.00700381
0.0207521
0.0316734
0.0475051
-0.0837877
-0.0837122
-0.0835046
-0.0826009
-0.0802684
-0.0762826
-0.0714362
-0.0673925
-0.065987
-0.0685835
-0.0758107
-0.0876085
-0.103407
-0.12233
-0.143379
-0.165569
-0.188017
-0.209986
-0.230885
-0.25026
-0.267767
-0.283146
-0.296203
-0.306793
-0.314809
-0.320173
-0.32283
-0.322744
-0.3199
-0.314309
-0.30595
-0.294856
-0.281084
-0.264703
-0.245811
-0.224549
-0.201119
-0.175804
-0.148997
-0.121218
-0.0931316
-0.0655251
-0.039252
-0.0150771
0.00639933
0.025421
0.041392
0.0593742
0.0717112
0.0981716
-0.0817727
-0.0820245
-0.0821055
-0.0810155
-0.0776494
-0.0715627
-0.0635298
-0.0554773
-0.0497276
-0.0481735
-0.051856
-0.0609501
-0.0749615
-0.0929779
-0.113895
-0.136586
-0.160013
-0.183282
-0.205667
-0.2266
-0.245648
-0.262488
-0.276886
-0.288671
-0.297721
-0.303953
-0.307312
-0.307765
-0.305297
-0.299923
-0.291645
-0.280492
-0.266528
-0.249832
-0.230513
-0.208723
-0.184673
-0.15865
-0.131039
-0.102338
-0.0731569
-0.044197
-0.0161904
0.0102456
0.0346769
0.0575337
0.0784247
0.103196
0.120196
0.163243
-0.0794578
-0.0800652
-0.080432
-0.0789914
-0.0743922
-0.0661826
-0.055205
-0.0435472
-0.0338686
-0.0284857
-0.0288178
-0.035287
-0.0475015
-0.064539
-0.0852153
-0.108285
-0.132571
-0.157044
-0.180846
-0.203299
-0.223879
-0.242198
-0.257973
-0.271003
-0.28115
-0.288321
-0.292461
-0.293541
-0.29155
-0.286503
-0.278428
-0.267361
-0.253378
-0.236574
-0.217066
-0.195013
-0.170631
-0.144196
-0.11606
-0.0866558
-0.0564877
-0.026102
0.00396685
0.0333324
0.0618137
0.0901606
0.118379
0.15356
0.183339
0.248029
-0.0769473
-0.0777958
-0.0782932
-0.0762473
-0.0701978
-0.0597705
-0.0461044
-0.0314503
-0.0185763
-0.0100432
-0.00755591
-0.0117512
-0.0223508
-0.0384545
-0.0588363
-0.0821668
-0.107163
-0.132679
-0.157748
-0.18159
-0.2036
-0.223323
-0.240427
-0.25468
-0.265923
-0.274055
-0.279019
-0.28079
-0.279365
-0.274764
-0.267024
-0.256196
-0.242375
-0.225679
-0.206235
-0.184201
-0.159779
-0.133216
-0.104806
-0.0748758
-0.0437706
-0.0118061
0.0207895
0.0540099
0.0880995
0.12425
0.162774
0.212431
0.259934
0.338505
-0.0755264
-0.076224
-0.0763514
-0.0731265
-0.0652463
-0.0525949
-0.0365173
-0.0195233
-0.00438986
0.00638198
0.0108947
0.00836733
-0.000998985
-0.0163428
-0.0364401
-0.0599242
-0.0854464
-0.111781
-0.137877
-0.162876
-0.186104
-0.207048
-0.225332
-0.240693
-0.252951
-0.261997
-0.267769
-0.270246
-0.269433
-0.265365
-0.258096
-0.247669
-0.234171
-0.217746
-0.198545
-0.176725
-0.152461
-0.125953
-0.0974143
-0.0670443
-0.0349837
-0.00123959
0.0344196
0.0726607
0.114651
0.162721
0.217938
0.289063
0.349432
0.424405
-0.0797002
-0.0790003
-0.0773906
-0.0717804
-0.0612333
-0.0459954
-0.0276713
-0.00886279
0.00765055
0.0196573
0.0253928
0.0238566
0.0152364
0.000371112
-0.0195397
-0.0431274
-0.0690157
-0.0959346
-0.122782
-0.148646
-0.1728
-0.19469
-0.213904
-0.230153
-0.243242
-0.25305
-0.259513
-0.26261
-0.262354
-0.258784
-0.251963
-0.241982
-0.228917
-0.212849
-0.193936
-0.172356
-0.148272
-0.121837
-0.0931831
-0.0623717
-0.0293185
0.00634145
0.0454571
0.0897431
0.142118
0.207805
0.291599
0.403521
0.495788
0.603372
-0.103132
-0.0953112
-0.0868645
-0.0760756
-0.0617123
-0.0433816
-0.0227282
-0.00233045
0.0153641
0.0281448
0.0343224
0.0332104
0.0250001
0.0104819
-0.00919031
-0.0326823
-0.0586331
-0.0857686
-0.112968
-0.13929
-0.163977
-0.186444
-0.206253
-0.223093
-0.236752
-0.247099
-0.254064
-0.257624
-0.257791
-0.254608
-0.24814
-0.238472
-0.225704
-0.209943
-0.191316
-0.169962
-0.146029
-0.119642
-0.090864
-0.0596328
-0.0256459
0.0118405
0.0543416
0.104778
0.168279
0.254338
0.375631
0.555682
0.767652
1.10782
-0.189966
-0.11221
-0.080622
-0.0713929
-0.0581152
-0.0387424
-0.0170464
0.00395849
0.0217634
0.0341932
0.0398432
0.0382305
0.0296274
0.0148535
-0.00494448
-0.0284688
-0.0544044
-0.0815162
-0.10871
-0.135059
-0.159811
-0.182378
-0.202319
-0.219313
-0.233144
-0.243673
-0.250825
-0.254575
-0.254933
-0.251939
-0.245659
-0.236176
-0.22359
-0.208011
-0.189558
-0.168364
-0.144562
-0.118247
-0.0894269
-0.0579407
-0.0233221
0.0154529
0.0603767
0.115192
0.186458
0.28652
0.435267
0.680334
1.07934
1.82851
)
;

boundaryField
{
    movingWall
    {
        type            zeroGradient;
    }
    fixedWalls
    {
        type            zeroGradient;
    }
    frontAndBack
    {
        type            empty;
    }
}


// ************************************************************************* //
