/*--------------------------------*- C++ -*----------------------------------*\
  =========                 |
  \\      /  F ield         | OpenFOAM: The Open Source CFD Toolbox
   \\    /   O peration     | Website:  https://openfoam.org
    \\  /    A nd           | Version:  7
     \\/     M anipulation  |
\*---------------------------------------------------------------------------*/
FoamFile
{
    version     2.0;
    format      ascii;
    class       surfaceScalarField;
    location    "1150";
    object      phi;
}
// * * * * * * * * * * * * * * * * * * * * * * * * * * * * * * * * * * * * * //

dimensions      [0 3 -1 0 0 0 0];

internalField   nonuniform List<scalar> 
4900
(
1.69429e-06
-1.70953e-06
6.22176e-06
-4.52758e-06
1.17156e-05
-5.49389e-06
1.65021e-05
-4.78646e-06
1.97495e-05
-3.2475e-06
2.13885e-05
-1.63903e-06
2.17669e-05
-3.78386e-07
2.12611e-05
5.05695e-07
2.00145e-05
1.24662e-06
1.78628e-05
2.15161e-06
1.44129e-05
3.44985e-06
9.1778e-06
5.235e-06
1.66642e-06
7.51132e-06
-8.57331e-06
1.02397e-05
-2.18909e-05
1.33175e-05
-3.8449e-05
1.65581e-05
-5.81518e-05
1.97028e-05
-8.05639e-05
2.2412e-05
-0.000104846
2.42826e-05
-0.000129743
2.4896e-05
-0.000153624
2.38818e-05
-0.000174606
2.09811e-05
-0.000190704
1.60985e-05
-0.000200045
9.34085e-06
-0.000201107
1.06256e-06
-0.000192951
-8.15658e-06
-0.000175331
-1.76198e-05
-0.000148769
-2.65617e-05
-0.00011456
-3.42095e-05
-7.47284e-05
-3.98316e-05
-3.19267e-05
-4.28016e-05
1.07293e-05
-4.2656e-05
4.9983e-05
-3.92538e-05
8.29832e-05
-3.30002e-05
0.000107554
-2.45708e-05
0.000122431
-1.4877e-05
0.0001275
-5.06916e-06
0.000123843
3.65689e-06
0.000113458
1.03853e-05
9.87358e-05
1.47219e-05
8.20204e-05
1.67154e-05
6.52492e-05
1.67713e-05
4.97676e-05
1.54815e-05
3.63098e-05
1.34578e-05
2.51032e-05
1.12066e-05
1.604e-05
9.06318e-06
8.89345e-06
7.14651e-06
3.59433e-06
5.29909e-06
5.05198e-07
3.0891e-06
5.05193e-07
4.47191e-06
-6.18158e-06
1.3846e-05
-1.39018e-05
2.43087e-05
-1.59567e-05
3.28971e-05
-1.33749e-05
3.79995e-05
-8.34992e-06
3.92254e-05
-2.86505e-06
3.68567e-05
1.99017e-06
3.12002e-05
6.16206e-06
2.21477e-05
1.0299e-05
9.07113e-06
1.52281e-05
-9.0268e-06
2.15476e-05
-3.32469e-05
2.94549e-05
-6.44888e-05
3.87531e-05
-0.000103192
4.89428e-05
-0.000149127
5.92521e-05
-0.000201232
6.86637e-05
-0.000257562
7.60326e-05
-0.000315406
8.02556e-05
-0.000371566
8.04422e-05
-0.000422706
7.6036e-05
-0.000465688
6.68643e-05
-0.000497835
5.31275e-05
-0.000517091
3.53551e-05
-0.000522116
1.43657e-05
-0.000512364
-8.68918e-06
-0.000487929
-3.25917e-05
-0.000449448
-5.61012e-05
-0.000398124
-7.78859e-05
-0.000335785
-9.65486e-05
-0.000264905
-0.000110712
-0.000188576
-0.000119131
-0.000110372
-0.000120859
-3.41755e-05
-0.000115451
3.5941e-05
-0.000103117
9.62858e-05
-8.49156e-05
0.000144043
-6.26348e-05
0.000177291
-3.83172e-05
0.00019524
-1.42918e-05
0.000198483
7.14237e-06
0.000189118
2.40869e-05
0.000170293
3.55399e-05
0.0001456
4.14642e-05
0.000118448
4.26336e-05
9.16027e-05
4.03031e-05
6.69309e-05
3.58783e-05
4.54199e-05
3.05741e-05
2.74599e-05
2.51064e-05
1.33354e-05
1.94236e-05
3.75553e-06
1.26689e-05
4.26072e-06
5.98627e-06
-1.21679e-05
1.73352e-05
-2.52509e-05
2.87991e-05
-2.74207e-05
3.68191e-05
-2.1395e-05
3.95334e-05
-1.10643e-05
3.63531e-05
3.15102e-07
2.72153e-05
1.11279e-05
1.19124e-05
2.14647e-05
-1.03204e-05
3.25317e-05
-4.07603e-05
4.56678e-05
-8.07669e-05
6.15541e-05
-0.000131263
7.99513e-05
-0.000192315
9.98043e-05
-0.000262816
0.000119444
-0.000340422
0.000136858
-0.000421774
0.000150016
-0.000502956
0.000157215
-0.000580015
0.000157315
-0.000649406
0.000149833
-0.000708265
0.000134895
-0.000754509
0.000113108
-0.000786783
8.54013e-05
-0.000804324
5.28959e-05
-0.000806778
1.68201e-05
-0.000794011
-2.14566e-05
-0.00076604
-6.05624e-05
-0.000723179
-9.89628e-05
-0.000666157
-0.000134908
-0.000596212
-0.000166494
-0.000515192
-0.000191732
-0.000425619
-0.000208703
-0.000330691
-0.000215788
-0.000234189
-0.000211952
-0.000140251
-0.000197055
-5.3107e-05
-0.000172059
2.32792e-05
-0.000139021
8.5936e-05
-0.000100974
0.000133071
-6.1427e-05
0.000163718
-2.35046e-05
0.00017802
9.78518e-06
0.000177514
3.60456e-05
0.000165004
5.39747e-05
0.000144036
6.36006e-05
0.000118294
6.6045e-05
9.10382e-05
6.31345e-05
6.47418e-05
5.68704e-05
4.10643e-05
4.87838e-05
2.12074e-05
3.92804e-05
6.60707e-06
2.72692e-05
1.08678e-05
6.50808e-06
-1.86761e-05
1.75954e-05
-3.63384e-05
2.69493e-05
-3.67747e-05
3.0755e-05
-2.52008e-05
2.72064e-05
-7.51573e-06
1.56101e-05
1.19113e-05
-4.56941e-06
3.13073e-05
-3.43462e-05
5.12415e-05
-7.52435e-05
7.34288e-05
-0.000128738
9.91621e-05
-0.00019556
0.000128376
-0.000275128
0.000159519
-0.000365316
0.000189992
-0.000462636
0.000216764
-0.000562774
0.000236996
-0.000661283
0.000248524
-0.000754185
0.000250117
-0.000838343
0.000241473
-0.000911546
0.000223036
-0.00097239
0.000195739
-0.00102005
0.000160767
-0.00105403
0.000119385
-0.00107399
7.28521e-05
-0.00107959
2.2425e-05
-0.00107046
-3.05871e-05
-0.00104629
-8.47308e-05
-0.00100693
-0.000138327
-0.000952433
-0.000189404
-0.000883224
-0.000235703
-0.000800239
-0.000274718
-0.000705104
-0.000303838
-0.000600304
-0.000320588
-0.000489262
-0.000322995
-0.000376253
-0.000310064
-0.000266109
-0.000282203
-0.000163682
-0.000241448
-7.32907e-05
-0.000191366
1.79274e-06
-0.000136511
5.99941e-05
-8.1706e-05
0.00010101
-3.12307e-05
0.000125095
1.19602e-05
0.000133541
4.55292e-05
0.000128852
6.82894e-05
0.000114325
8.0572e-05
9.35422e-05
8.39169e-05
6.98665e-05
8.05461e-05
4.6114e-05
7.25362e-05
2.46352e-05
6.07592e-05
7.92796e-06
4.39764e-05
1.87957e-05
6.205e-06
-2.48812e-05
1.48945e-05
-4.5028e-05
1.92042e-05
-4.10845e-05
1.54733e-05
-2.147e-05
2.15491e-06
5.80254e-06
-2.16351e-05
3.57012e-05
-5.70737e-05
6.67458e-05
-0.000105887
0.000100055
-0.0001697
0.000137241
-0.000249073
0.000178536
-0.000342823
0.000222126
-0.000447932
0.000264628
-0.000560018
0.000302078
-0.000674137
0.000330884
-0.000785614
0.000348473
-0.000890628
0.000353538
-0.000986453
0.000345941
-0.00107137
0.000326391
-0.00114442
0.000296087
-0.00120512
0.00025644
-0.00125324
0.000208879
-0.0012886
0.000154751
-0.00131108
9.53287e-05
-0.00132051
3.18537e-05
-0.00131663
-3.44693e-05
-0.00129906
-0.000102295
-0.00126732
-0.000170065
-0.00122085
-0.000235877
-0.00115912
-0.000297432
-0.00108184
-0.000351997
-0.000989242
-0.000396438
-0.00088243
-0.0004274
-0.000763707
-0.000441717
-0.000636769
-0.000437002
-0.000506676
-0.000412297
-0.000379456
-0.000368668
-0.000261316
-0.000309507
-0.000157552
-0.000240274
-7.16918e-05
-0.000167567
-5.17428e-06
-9.77482e-05
4.25419e-05
-3.5756e-05
7.27019e-05
1.53691e-05
8.69092e-05
5.4082e-05
8.76916e-05
7.97896e-05
7.82578e-05
9.33507e-05
6.21197e-05
9.66841e-05
4.27381e-05
9.19178e-05
2.34072e-05
8.009e-05
7.60286e-06
5.97807e-05
2.63986e-05
4.89823e-06
-2.97794e-05
8.8799e-06
-4.90098e-05
5.28875e-06
-3.74935e-05
-8.9251e-06
-7.25631e-06
-3.51062e-05
3.19835e-05
-7.44172e-05
7.50122e-05
-0.000128577
0.000120905
-0.000199333
0.000170811
-0.000287244
0.000225152
-0.000390785
0.000282077
-0.000506311
0.000337651
-0.000628759
0.000387076
-0.00075268
0.000425999
-0.000873167
0.000451371
-0.000986417
0.000461722
-0.00108987
0.000456993
-0.00118205
0.000438114
-0.00126223
0.000406575
-0.00133023
0.000364088
-0.00138618
0.00031239
-0.0014304
0.000253096
-0.00146329
0.000187646
-0.00148529
0.000117324
-0.00149672
4.32826e-05
-0.00149767
-3.35168e-05
-0.00148789
-0.000112072
-0.00146677
-0.000191185
-0.00143328
-0.000269365
-0.00138603
-0.000344684
-0.00132343
-0.000414597
-0.00124404
-0.000475828
-0.00114698
-0.00052446
-0.00103246
-0.000556246
-0.000902318
-0.000567139
-0.000760537
-0.000554077
-0.000613248
-0.000515957
-0.000468233
-0.000454522
-0.000333747
-0.000374759
-0.000216856
-0.000284458
-0.000121867
-0.000192737
-4.9737e-05
-0.000107886
1.16972e-06
-3.55377e-05
3.34549e-05
2.17968e-05
4.967e-05
6.35744e-05
5.27741e-05
9.02466e-05
4.61812e-05
0.000103277
3.35941e-05
0.000104505
1.88736e-05
9.48105e-05
6.11406e-06
7.25402e-05
3.25126e-05
2.27463e-06
-3.20541e-05
-9.14213e-07
-4.58211e-05
-1.50048e-05
-2.3403e-05
-4.21893e-05
1.99281e-05
-8.36508e-05
7.34449e-05
-0.000140824
0.000132185
-0.000215408
0.000195489
-0.000308082
0.000263485
-0.000417309
0.000334379
-0.000539145
0.000403913
-0.000668042
0.000466548
-0.000798067
0.000517101
-0.000923949
0.000551882
-0.00104167
0.000569091
-0.00114857
0.000568626
-0.00124318
0.000551602
-0.00132492
0.000519849
-0.00139385
0.000475511
-0.00145056
0.000420797
-0.00149596
0.000357787
-0.00153115
0.000288288
-0.00155731
0.000213798
-0.00157549
0.000135512
-0.00158653
5.43172e-05
-0.00159087
-2.91724e-05
-0.00158854
-0.000114402
-0.00157903
-0.000200699
-0.00156115
-0.000287244
-0.00153305
-0.000372783
-0.0014923
-0.00045535
-0.00143604
-0.000532084
-0.00136135
-0.000599146
-0.00126584
-0.000651763
-0.00114845
-0.000684526
-0.0010104
-0.000692128
-0.000855859
-0.000670497
-0.000692235
-0.000618146
-0.000529572
-0.000537423
-0.000378889
-0.000435141
-0.000249665
-0.000321961
-0.000147378
-0.000210173
-7.24887e-05
-0.000110427
-2.1693e-05
-2.89989e-05
9.33105e-06
3.25503e-05
2.44416e-05
7.5136e-05
2.74225e-05
0.000100296
2.2231e-05
0.000109696
1.30469e-05
0.000103994
4.21311e-06
8.1374e-05
3.67258e-05
-1.91683e-06
-3.01373e-05
-1.46527e-05
-3.30854e-05
-4.13226e-05
3.26673e-06
-8.32175e-05
6.18229e-05
-0.000141349
0.000131577
-0.000217117
0.000207952
-0.000311302
0.000289674
-0.000422623
0.000374806
-0.000547187
0.000458944
-0.000679191
0.000535917
-0.000812247
0.000599604
-0.000940593
0.000645447
-0.00105978
0.000671071
-0.00116685
0.000676163
-0.00126018
0.000661954
-0.00133923
0.00063065
-0.00140432
0.000584943
-0.00145648
0.000527663
-0.00149718
0.000461503
-0.0015282
0.000388807
-0.00155136
0.000311443
-0.00156836
0.000230805
-0.00158067
0.000147819
-0.00158936
6.30037e-05
-0.00159515
-2.33793e-05
-0.00159834
-0.000111212
-0.00159866
-0.000200375
-0.00159519
-0.000290719
-0.00158625
-0.000381725
-0.00156931
-0.000472284
-0.00154094
-0.000560462
-0.00149688
-0.000643205
-0.00143257
-0.00071607
-0.00134389
-0.00077321
-0.00122823
-0.000807786
-0.00108585
-0.000812875
-0.000921051
-0.000782945
-0.000742699
-0.000715775
-0.000563539
-0.000614301
-0.000397942
-0.000487558
-0.000258303
-0.000349812
-0.000151393
-0.000217338
-7.68538e-05
-0.000103538
-2.92216e-05
-1.5082e-05
-2.06802e-06
4.79823e-05
9.97759e-06
8.82503e-05
1.17326e-05
0.000107941
7.7926e-06
0.000107934
2.60129e-06
8.65652e-05
3.9327e-05
-7.74384e-06
-2.23935e-05
-3.18968e-05
-8.93252e-06
-7.24947e-05
4.38645e-05
-0.000129795
0.000119124
-0.000204621
0.000206402
-0.000297702
0.000301032
-0.000408145
0.000400117
-0.000532442
0.000499104
-0.000664821
0.000591323
-0.00079855
0.000669645
-0.000927315
0.000728369
-0.0010461
0.000764231
-0.00115148
0.000776456
-0.00124158
0.000766261
-0.00131584
0.00073621
-0.00137481
0.000689617
-0.00141992
0.000630053
-0.0014532
0.000560948
-0.00147699
0.000485287
-0.00149359
0.000405412
-0.00150514
0.000322996
-0.00151344
0.000239104
-0.0015199
0.00015427
-0.00152555
6.86557e-05
-0.00153115
-1.77778e-05
-0.00153711
-0.000105246
-0.00154348
-0.000194012
-0.00154985
-0.000284343
-0.00155527
-0.000376314
-0.00155786
-0.000469689
-0.00155466
-0.000563665
-0.00154141
-0.000656449
-0.00151267
-0.000744814
-0.00146215
-0.000823728
-0.00138374
-0.000886202
-0.00127298
-0.00092363
-0.00112898
-0.000926946
-0.000956084
-0.00088867
-0.000764804
-0.000805581
-0.00057103
-0.000681332
-0.000392983
-0.000527859
-0.000246194
-0.000364126
-0.000138403
-0.000211329
-6.77067e-05
-8.57786e-05
-2.5897e-05
6.17257e-06
-4.31134e-06
6.66646e-05
3.87075e-06
9.97592e-05
4.28263e-06
0.000107522
1.71488e-06
8.91329e-05
4.10419e-05
-1.49341e-05
-7.45952e-06
-5.16648e-05
2.77981e-05
-0.000106488
9.86873e-05
-0.000178728
0.000191364
-0.000268737
0.000296411
-0.000375974
0.000408268
-0.00049757
0.000521713
-0.000628129
0.000629663
-0.000760797
0.000723991
-0.000888755
0.000797603
-0.00100634
0.000845953
-0.00110956
0.000867449
-0.00119615
0.000863054
-0.00126549
0.000835591
-0.00131828
0.000789008
-0.00135637
0.000727707
-0.00138229
0.000655972
-0.00139887
0.000577524
-0.00140883
0.00049525
-0.00141456
0.000411139
-0.00141795
0.000326391
-0.00142043
0.000241579
-0.00142299
0.000156833
-0.00142637
7.20331e-05
-0.00143107
-1.3071e-05
-0.00143748
-9.88366e-05
-0.00144586
-0.000185635
-0.00145635
-0.00027385
-0.0014688
-0.00036387
-0.00148245
-0.00045604
-0.00149564
-0.000550469
-0.00150539
-0.000646699
-0.00150697
-0.000743241
-0.00149378
-0.000836917
-0.00145782
-0.000922157
-0.00139084
-0.000990614
-0.00128627
-0.00103151
-0.00114185
-0.0010331
-0.000962021
-0.000985407
-0.000759312
-0.000884041
-0.00055329
-0.000733881
-0.000366424
-0.000550992
-0.000217198
-0.000360555
-0.000113342
-0.000189635
-5.01881e-05
-5.69809e-05
-1.63374e-05
3.28138e-05
-1.2889e-06
8.47106e-05
2.74898e-06
0.000103485
1.64852e-06
9.02334e-05
4.26904e-05
-2.29887e-05
1.55291e-05
-7.2447e-05
7.72563e-05
-0.00014071
0.00016695
-0.000226263
0.000276918
-0.000328584
0.000398732
-0.000445546
0.00052523
-0.000572483
0.00064865
-0.000702759
0.000759939
-0.000829218
0.00085045
-0.000945553
0.000913938
-0.0010471
0.000947504
-0.00113113
0.00095147
-0.00119676
0.000928685
-0.00124481
0.000883647
-0.00127744
0.00082164
-0.00129766
0.000747919
-0.00130875
0.000667068
-0.00131384
0.000582611
-0.0013155
0.000496907
-0.00131564
0.000411282
-0.00131555
0.000326298
-0.00131599
0.000242021
-0.00131741
0.000158254
-0.00132008
7.47016e-05
-0.00132419
-8.96282e-06
-0.00132997
-9.30534e-05
-0.00133775
-0.000177856
-0.00134793
-0.000263664
-0.00136094
-0.000350864
-0.00137703
-0.000439951
-0.00139602
-0.000531481
-0.00141676
-0.000625953
-0.00143654
-0.000723463
-0.00145042
-0.000823037
-0.00145091
-0.00092167
-0.00142825
-0.00101327
-0.00137182
-0.00108794
-0.00127276
-0.00113216
-0.00112738
-0.00113079
-0.000940531
-0.00107089
-0.000727401
-0.000947011
-0.000511988
-0.000766404
-0.000321271
-0.000551273
-0.000175847
-0.000335058
-8.16178e-05
-0.000151211
-2.96176e-05
-1.91864e-05
-5.39408e-06
6.0487e-05
2.49293e-06
9.55975e-05
2.1813e-06
9.0545e-05
4.48717e-05
-3.11657e-05
4.66948e-05
-9.24308e-05
0.000138521
-0.000172425
0.000246944
-0.000268676
0.000373169
-0.000379527
0.000509583
-0.000501294
0.000646997
-0.000627983
0.00077534
-0.00075242
0.000884376
-0.000867762
0.000965791
-0.000968622
0.0010148
-0.00105162
0.0010305
-0.00111549
0.00101534
-0.00116095
0.000974149
-0.00119035
0.000913045
-0.00120707
0.000838357
-0.00121485
0.000755703
-0.00121718
0.000669402
-0.00121686
0.000582285
-0.00121581
0.000495856
-0.00121517
0.000410646
-0.00121548
0.000326605
-0.00121687
0.000243412
-0.0012193
0.000160686
-0.00122268
7.80822e-05
-0.00122697
-4.67872e-06
-0.00123223
-8.77851e-05
-0.00123871
-0.000171379
-0.00124679
-0.000255584
-0.00125706
-0.0003406
-0.00127025
-0.000426758
-0.00128712
-0.000514605
-0.00130813
-0.000604951
-0.00133282
-0.000698767
-0.00135906
-0.000796801
-0.00138196
-0.000898769
-0.00139322
-0.00100202
-0.00138127
-0.00109988
-0.00133299
-0.00118045
-0.00123702
-0.00122676
-0.00108849
-0.00121942
-0.000893372
-0.00114213
-0.000670616
-0.00098916
-0.000449603
-0.000772287
-0.000261707
-0.000522953
-0.000127798
-0.00028512
-4.91561e-05
-9.7828e-05
-1.12763e-05
2.26072e-05
2.15819e-06
8.2163e-05
2.8809e-06
8.98222e-05
4.77526e-05
-3.859e-05
8.52848e-05
-0.000109888
0.000209819
-0.000199148
0.000336204
-0.000302829
0.00047685
-0.000418073
0.000624828
-0.000539925
0.000768849
-0.000661642
0.000897056
-0.000776107
0.000998841
-0.00087724
0.00106692
-0.000960876
0.00109843
-0.00102513
0.00109475
-0.00107036
0.00106058
-0.00109888
0.00100267
-0.0011143
0.000928463
-0.00112074
0.000844795
-0.00112205
0.000757017
-0.00112128
0.000668631
-0.00112043
0.000581438
-0.00112057
0.000495986
-0.00112202
0.000412097
-0.0011247
0.000329293
-0.00112836
0.000247068
-0.00113269
0.000165014
-0.00113745
8.28453e-05
-0.00114252
3.87835e-07
-0.00114787
-8.24339e-05
-0.0011536
-0.000165646
-0.00115995
-0.000249235
-0.00116734
-0.000333208
-0.00117645
-0.000417656
-0.0011882
-0.000502852
-0.00120376
-0.000589389
-0.00122423
-0.000678294
-0.00125
-0.000771031
-0.00127964
-0.000869133
-0.00130849
-0.000973171
-0.00132747
-0.00108089
-0.00132308
-0.00118484
-0.0012794
-0.00127043
-0.00118268
-0.00131613
-0.00102744
-0.00129737
-0.000822098
-0.00119451
-0.000591017
-0.00100337
-0.000369969
-0.000744001
-0.000193732
-0.000461358
-7.99943e-05
-0.000211565
-2.19502e-05
-3.5437e-05
2.4679e-07
5.99659e-05
3.27275e-06
8.67962e-05
5.10254e-05
-4.44943e-05
0.000129779
-0.000123388
0.000288712
-0.000218962
0.000431778
-0.000326541
0.000584429
-0.000442187
0.000740473
-0.000560087
0.000886749
-0.000673293
0.00101026
-0.000775213
0.00110076
-0.00086084
0.00115255
-0.000927432
0.00116503
-0.000974701
0.00114202
-0.0010046
0.00109047
-0.00102073
0.0010188
-0.00102745
0.000935189
-0.00102899
0.000846328
-0.00102867
0.000756699
-0.00102867
0.000668628
-0.00103003
0.000582799
-0.00103298
0.00049894
-0.00103729
0.000416406
-0.00104254
0.000334546
-0.00104834
0.000252865
-0.00105437
0.000171044
-0.00106043
8.89098e-05
-0.00106643
6.38455e-06
-0.00107233
-7.65392e-05
-0.00107814
-0.00015983
-0.00108395
-0.000243424
-0.00108993
-0.000327234
-0.0010964
-0.000411184
-0.00110398
-0.000495269
-0.00111369
-0.000579676
-0.001127
-0.000664993
-0.00114558
-0.000752449
-0.00117068
-0.000844036
-0.00120168
-0.000942165
-0.00123418
-0.00104839
-0.00125819
-0.00116084
-0.0012579
-0.00127072
-0.00121442
-0.00135961
-0.00111187
-0.00139992
-0.000945407
-0.00136097
-0.00072804
-0.00122073
-0.000491716
-0.000980324
-0.000279057
-0.000674017
-0.000125358
-0.000365264
-3.96804e-05
-0.000121115
-4.3935e-06
2.46791e-05
3.03116e-06
7.93715e-05
5.40565e-05
-4.83078e-05
0.000178087
-0.000131947
0.000372351
-0.000230687
0.000530519
-0.000338726
0.000692467
-0.00045128
0.000853028
-0.000562126
0.000997595
-0.000664556
0.00111269
-0.000752827
0.00118903
-0.0008232
0.00122292
-0.000874429
0.00121625
-0.000907755
0.00117534
-0.000926435
0.00110915
-0.000934868
0.00102723
-0.000937549
0.00093787
-0.000938178
0.000846957
-0.000939187
0.000757708
-0.000941732
0.000671173
-0.000946015
0.000587082
-0.000951705
0.00050463
-0.000958295
0.000422996
-0.000965324
0.000341576
-0.000972466
0.000260007
-0.000979533
0.000178111
-0.000986443
9.58196e-05
-0.000993175
1.31165e-05
-0.000999731
-6.99831e-05
-0.00100611
-0.000153447
-0.00101231
-0.000237225
-0.00101832
-0.000321231
-0.00102416
-0.000405345
-0.00103001
-0.000489416
-0.00103635
-0.000573335
-0.00104416
-0.00065718
-0.00105511
-0.000741505
-0.00107142
-0.000827722
-0.00109518
-0.000918402
-0.00112659
-0.00101698
-0.00116132
-0.0011261
-0.00118805
-0.00124399
-0.00118813
-0.00135953
-0.00113948
-0.00144858
-0.00102492
-0.00147552
-0.000842524
-0.00140313
-0.000612932
-0.00120992
-0.000377889
-0.000909061
-0.000185662
-0.000557491
-6.59164e-05
-0.00024086
-1.23373e-05
-2.89002e-05
2.04059e-06
6.49937e-05
5.60971e-05
-4.9701e-05
0.000227788
-0.000135075
0.000457725
-0.000233899
0.000629343
-0.000339314
0.000797882
-0.000445983
0.000959697
-0.000547664
0.00109928
-0.000638225
0.00120325
-0.000712969
0.00126378
-0.000769487
0.00127944
-0.000807954
0.00125472
-0.000830882
0.00119827
-0.000842381
0.00112065
-0.000847069
0.00103192
-0.000849011
0.000939812
-0.000851025
0.00084897
-0.000854521
0.000761204
-0.000859792
0.000676444
-0.00086648
0.00059377
-0.000874013
0.000512163
-0.000881883
0.000430865
-0.000889749
0.000349442
-0.000897449
0.000267706
-0.000904939
0.000185602
-0.00091225
0.00010313
-0.000919431
2.02972e-05
-0.000926524
-6.28894e-05
-0.000933545
-0.000146426
-0.000940467
-0.000230303
-0.000947218
-0.000314481
-0.000953685
-0.000398878
-0.000959757
-0.000483344
-0.000965425
-0.000567667
-0.000970981
-0.000651623
-0.000977325
-0.000735162
-0.000986267
-0.000818779
-0.00100057
-0.000904103
-0.00102314
-0.000994414
-0.00105486
-0.00109438
-0.00109107
-0.00120778
-0.00111832
-0.00133229
-0.00111433
-0.00145257
-0.00105394
-0.00153592
-0.000920484
-0.00153658
-0.000718506
-0.00141189
-0.000480187
-0.00114738
-0.00025821
-0.000779468
-0.000101479
-0.000397591
-2.37478e-05
-0.000106631
3.07838e-07
4.0938e-05
5.64049e-05
-4.85874e-05
0.000276375
-0.000132743
0.00054188
-0.000228834
0.000725434
-0.000329054
0.000898101
-0.000427797
0.00105844
-0.000519119
0.0011906
-0.000597679
0.00128181
-0.000659902
0.001326
-0.000704642
0.00132418
-0.000733274
0.00128335
-0.000749192
0.00121419
-0.000756844
0.0011283
-0.000760558
0.00103563
-0.000763614
0.000942868
-0.000767837
0.000853194
-0.000773762
0.000767129
-0.000781103
0.000683785
-0.000789263
0.00060193
-0.000797684
0.000520585
-0.000806004
0.000439185
-0.000814062
0.000357501
-0.000821847
0.000275491
-0.000829424
0.000193179
-0.000836884
0.00011059
-0.000844312
2.77248e-05
-0.000851771
-5.54307e-05
-0.000859289
-0.000138908
-0.00086686
-0.000222732
-0.000874424
-0.000306917
-0.000881858
-0.000391444
-0.000888966
-0.000476236
-0.000895506
-0.000561126
-0.000901295
-0.000645834
-0.000906439
-0.000730018
-0.000911742
-0.000813477
-0.000919181
-0.000896663
-0.000932074
-0.000981522
-0.000954148
-0.00107231
-0.000986693
-0.00117523
-0.00102392
-0.00129506
-0.00104899
-0.0014275
-0.00103515
-0.00154975
-0.00095504
-0.0016167
-0.000796016
-0.00157092
-0.000574234
-0.00136916
-0.000337173
-0.00101653
-0.000146102
-0.000588662
-3.90016e-05
-0.000213732
-2.30695e-06
4.2432e-06
5.4098e-05
-4.50865e-05
0.000321462
-0.000125292
0.000622086
-0.000216221
0.000816363
-0.000309244
0.000991125
-0.000398726
0.00114792
-0.000479249
0.00127112
-0.000546369
0.00134893
-0.000597597
0.00137723
-0.000632875
0.00135946
-0.000654448
0.00130492
-0.000666157
0.0012259
-0.000672327
0.00113447
-0.000676653
0.00103996
-0.000681501
0.000947716
-0.000687823
0.000859515
-0.000695541
0.000774847
-0.000704098
0.000692342
-0.0007129
0.000610732
-0.000721541
0.000529225
-0.000729845
0.000447489
-0.000737807
0.000365464
-0.000745515
0.000283199
-0.000753083
0.000200747
-0.000760621
0.000118129
-0.000768215
3.53186e-05
-0.000775928
-4.7718e-05
-0.000783794
-0.000131042
-0.000791823
-0.000214703
-0.00079999
-0.000298749
-0.000808216
-0.000383218
-0.000816344
-0.000468108
-0.000824118
-0.000553352
-0.00083119
-0.000638762
-0.000837219
-0.000723989
-0.000842146
-0.00080855
-0.00084672
-0.000892089
-0.000853166
-0.000975075
-0.000865472
-0.00106
-0.000888157
-0.00115255
-0.000922361
-0.00126086
-0.000959783
-0.00139007
-0.000978539
-0.001531
-0.000947016
-0.00164822
-0.000838257
-0.00167968
-0.000649423
-0.001558
-0.000414572
-0.00125138
-0.000197741
-0.000805493
-5.87573e-05
-0.000352715
-5.87562e-06
-4.86386e-05
4.82223e-05
-3.94711e-05
0.000360933
-0.000113323
0.000695937
-0.000197102
0.000900142
-0.000281478
0.0010755
-0.000360961
0.00122741
-0.0004308
0.00134096
-0.000487461
0.00140559
-0.000529416
0.00141918
-0.000557437
0.00138748
-0.000574278
0.00132177
-0.000583818
0.00123544
-0.000589928
0.00114058
-0.000595512
0.00104554
-0.00060209
0.000954294
-0.000609966
0.000867391
-0.000618735
0.000783616
-0.0006278
0.000701408
-0.000636702
0.000619634
-0.000645222
0.000537746
-0.000653343
0.000455609
-0.000661157
0.000373278
-0.000668795
0.000290837
-0.00067638
0.000208333
-0.000684012
0.000125761
-0.000691764
4.30709e-05
-0.00069969
-3.97923e-05
-0.00070782
-0.000122912
-0.00071617
-0.000206353
-0.000724739
-0.000290181
-0.00073349
-0.000374466
-0.000742335
-0.000459263
-0.000751096
-0.00054459
-0.000759471
-0.000630387
-0.00076702
-0.00071644
-0.000773264
-0.000802306
-0.000778016
-0.000887338
-0.000782063
-0.000971028
-0.000788059
-0.00105401
-0.000800843
-0.00113977
-0.00082556
-0.00123614
-0.00086214
-0.00135349
-0.000897684
-0.00149545
-0.000903443
-0.00164246
-0.000844019
-0.0017391
-0.000698491
-0.00170352
-0.000482176
-0.0014677
-0.000252308
-0.00103536
-8.3162e-05
-0.000521861
-1.03784e-05
-0.000121422
3.7844e-05
-3.21128e-05
0.000393046
-9.75821e-05
0.000761406
-0.000172663
0.000975223
-0.000247424
0.00115026
-0.000316629
0.00129661
-0.000376254
0.00140058
-0.000423617
0.00145296
-0.000457969
0.00145353
-0.00048062
0.00141013
-0.000494484
0.00133563
-0.00050316
0.00124412
-0.000509878
0.0011473
-0.00051676
0.00105242
-0.000524649
0.000962184
-0.000533452
0.000876194
-0.000542658
0.000792821
-0.000551766
0.000710516
-0.000560493
0.000628361
-0.000568777
0.00054603
-0.000576702
0.000463534
-0.000584407
0.000380983
-0.000592026
0.000298456
-0.00059967
0.000215977
-0.000607423
0.000133514
-0.000615344
5.09917e-05
-0.000623476
-3.16599e-05
-0.000631844
-0.000114544
-0.000640462
-0.000197734
-0.000649335
-0.000281307
-0.000658451
-0.00036535
-0.000667767
-0.000449947
-0.000677187
-0.000535171
-0.000686515
-0.000621059
-0.000695403
-0.000707551
-0.000703324
-0.000794385
-0.000709676
-0.000880986
-0.000714205
-0.000966498
-0.000717903
-0.00105031
-0.000724134
-0.00113353
-0.000738799
-0.00122148
-0.000767174
-0.00132512
-0.000806002
-0.00145663
-0.000834878
-0.00161358
-0.0008173
-0.00175668
-0.000718547
-0.00180228
-0.000533377
-0.00165287
-0.000304525
-0.00126421
-0.000111206
-0.000715181
-1.58185e-05
-0.00021681
2.20255e-05
-2.34357e-05
0.000416481
-7.88759e-05
0.000816846
-0.000144102
0.00104045
-0.000208669
0.00121483
-0.000267634
0.00135557
-0.000317697
0.00145065
-0.000356923
0.00149218
-0.000385131
0.00148174
-0.000403884
0.00142889
-0.000415967
0.00134771
-0.000424488
0.00125264
-0.000431979
0.00115479
-0.000439881
0.00106033
-0.000448572
0.000970874
-0.000457764
0.000885387
-0.000466984
0.000802041
-0.00047588
0.000719412
-0.000484322
0.000636803
-0.000492358
0.000554066
-0.000500121
0.000471298
-0.000507757
0.000388618
-0.000515387
0.000306086
-0.000523105
0.000223696
-0.000530982
0.000141391
-0.000539069
5.90791e-05
-0.000547407
-2.33222e-05
-0.000556012
-0.000105939
-0.000564896
-0.00018885
-0.000574061
-0.000272142
-0.000583499
-0.000355912
-0.000593189
-0.000440257
-0.00060308
-0.000525279
-0.000613065
-0.000611074
-0.000622924
-0.000697692
-0.000632254
-0.000785056
-0.000640429
-0.000872811
-0.000646744
-0.000960183
-0.000650985
-0.00104607
-0.000654618
-0.0011299
-0.000662134
-0.00121396
-0.000680562
-0.00130669
-0.00071395
-0.00142324
-0.000752564
-0.00157497
-0.000765539
-0.0017437
-0.000710863
-0.00185695
-0.000564334
-0.0017994
-0.000349351
-0.00147919
-0.000140892
-0.000923639
-2.20936e-05
-0.000335609
-6.81423e-08
-1.38807e-05
0.000430362
-5.80022e-05
0.000860968
-0.000112546
0.00109499
-0.000166629
0.00126891
-0.00021558
0.00140453
-0.000256778
0.00149184
-0.000288907
0.00152431
-0.000312142
0.00150498
-0.000328055
0.0014448
-0.000339084
0.00135874
-0.000347736
0.00126129
-0.000355878
0.00116293
-0.000364417
0.00106886
-0.000373442
0.0009799
-0.000382627
0.000894571
-0.000391601
0.000811015
-0.000400158
0.00072797
-0.000408283
0.000644929
-0.000416083
0.000561866
-0.000423703
0.000478918
-0.000431279
0.000396194
-0.000438914
0.000313722
-0.000446688
0.00023147
-0.000454667
0.000149371
-0.000462903
6.73154e-05
-0.000471438
-1.47873e-05
-0.000480285
-9.70921e-05
-0.000489451
-0.000179684
-0.000498933
-0.00026266
-0.000508719
-0.000346125
-0.000518791
-0.000430185
-0.000529116
-0.000514954
-0.000539635
-0.000600555
-0.000550221
-0.000687107
-0.000560613
-0.000774664
-0.00057033
-0.000863093
-0.000578639
-0.000951874
-0.00058477
-0.00103994
-0.000588739
-0.00112593
-0.000592921
-0.00120978
-0.000603399
-0.00129621
-0.000627833
-0.0013988
-0.000666138
-0.00153667
-0.000697493
-0.00171235
-0.000679784
-0.00187466
-0.000574212
-0.00190497
-0.00038307
-0.00167034
-0.000169644
-0.00113707
-2.94138e-05
-0.000475839
-2.9482e-05
-3.86754e-06
0.00043423
-3.57255e-05
0.000892826
-7.90019e-05
0.00113827
-0.000122505
0.00131241
-0.000161756
0.00144378
-0.000194733
0.00152482
-0.000220612
0.00155019
-0.000239741
0.00152411
-0.000253509
0.00145857
-0.000263863
0.0013691
-0.000272676
0.0012701
-0.000281221
0.00117148
-0.000290016
0.00107766
-0.000299009
0.000988893
-0.000307914
0.000903476
-0.000316487
0.000819588
-0.000324641
0.000736124
-0.000332435
0.000652722
-0.000339995
0.000569427
-0.000347463
0.000486386
-0.000354955
0.000403686
-0.000362562
0.000321329
-0.000370355
0.000239264
-0.000378399
0.000157415
-0.000386756
7.56718e-05
-0.00039547
-6.07252e-06
-0.000404559
-8.80033e-05
-0.000414025
-0.000170218
-0.000423858
-0.000252828
-0.000434039
-0.000335943
-0.000444547
-0.000419677
-0.000455352
-0.000504148
-0.000466414
-0.000589493
-0.000477655
-0.000675865
-0.000488915
-0.000763404
-0.00049987
-0.000852139
-0.000509933
-0.00094181
-0.000518256
-0.00103161
-0.000524102
-0.00112009
-0.000528063
-0.00120582
-0.000534058
-0.00129022
-0.000550025
-0.00138284
-0.000582315
-0.00150438
-0.000621412
-0.00167325
-0.00063133
-0.00186474
-0.000564727
-0.00197157
-0.000403799
-0.00183126
-0.000195021
-0.00134584
-3.78427e-05
-0.000633017
-6.73247e-05
6.06641e-06
0.000428163
-1.27144e-05
0.000911607
-4.43612e-05
0.00116992
-7.72877e-05
0.00134534
-0.000107158
0.00147365
-0.000132448
0.00155011
-0.000152705
0.00157045
-0.000168314
0.00153971
-0.000180338
0.00147059
-0.000190161
0.00137892
-0.000199026
0.00127897
-0.000207702
0.00118016
-0.000216434
0.00108639
-0.000225123
0.000997581
-0.000233567
0.00091192
-0.000241641
0.000827663
-0.000249348
0.000743832
-0.000256783
0.000660157
-0.000264078
0.000576722
-0.000271357
0.000493665
-0.000278722
0.000411051
-0.000286256
0.000328863
-0.000294024
0.000247032
-0.000302091
0.000165482
-0.000310532
8.41126e-05
-0.000319401
2.7972e-06
-0.000328725
-7.86789e-05
-0.000338504
-0.000160439
-0.000348717
-0.000242614
-0.000359341
-0.000325319
-0.000370349
-0.00040867
-0.000381709
-0.000492788
-0.000393386
-0.000577816
-0.000405324
-0.000663927
-0.00041742
-0.000751308
-0.000429456
-0.000840102
-0.000441014
-0.000930252
-0.000451377
-0.00102125
-0.000459609
-0.00111185
-0.000465232
-0.00120019
-0.000470012
-0.00128544
-0.000480147
-0.0013727
-0.000504697
-0.00147983
-0.000543892
-0.00163405
-0.000571887
-0.00183675
-0.000539306
-0.00200415
-0.000411436
-0.00195914
-0.00021526
-0.00154202
-4.69563e-05
-0.000801322
-0.000114281