/*--------------------------------*- C++ -*----------------------------------*\
  =========                 |
  \\      /  F ield         | OpenFOAM: The Open Source CFD Toolbox
   \\    /   O peration     | Website:  https://openfoam.org
    \\  /    A nd           | Version:  7
     \\/     M anipulation  |
\*---------------------------------------------------------------------------*/
FoamFile
{
    version     2.0;
    format      ascii;
    class       volVectorField;
    location    "1150";
    object      U;
}
// * * * * * * * * * * * * * * * * * * * * * * * * * * * * * * * * * * * * * //

dimensions      [0 1 -1 0 0 0 0];

internalField   nonuniform List<vector> 
2500
(
(0.000206302 -0.000202435 0)
(0.00186422 -0.000571828 0)
(0.00447349 -0.000697972 0)
(0.00716292 -0.000600162 0)
(0.00922911 -0.000419018 0)
(0.0104504 -0.000264345 0)
(0.0109302 -0.000188017 0)
(0.010881 -0.000185895 0)
(0.0104505 -0.000219885 0)
(0.00963388 -0.000245447 0)
(0.00828209 -0.000228692 0)
(0.00616275 -0.000150768 0)
(0.00301855 -2.63104e-06 0)
(-0.00139425 0.000221101 0)
(-0.0072803 0.000523568 0)
(-0.0147721 0.000908311 0)
(-0.0238922 0.00137534 0)
(-0.0345104 0.00191304 0)
(-0.0463091 0.00248819 0)
(-0.0587621 0.00303848 0)
(-0.071141 0.00347414 0)
(-0.0825522 0.0036906 0)
(-0.0920066 0.0035894 0)
(-0.0985216 0.00310532 0)
(-0.101232 0.00223262 0)
(-0.0994631 0.00102937 0)
(-0.0929475 -0.000373629 0)
(-0.0817582 -0.00181082 0)
(-0.0663627 -0.00310862 0)
(-0.0476176 -0.00410011 0)
(-0.0267418 -0.0046403 0)
(-0.00521762 -0.00460658 0)
(0.0154291 -0.00393673 0)
(0.0337285 -0.0027856 0)
(0.0483734 -0.00137266 0)
(0.0584079 0.000124343 0)
(0.0634516 0.00149567 0)
(0.063717 0.00253324 0)
(0.0600102 0.00311118 0)
(0.0534964 0.00322444 0)
(0.0454077 0.00298628 0)
(0.0368473 0.00254958 0)
(0.0286524 0.00204876 0)
(0.0213429 0.00157444 0)
(0.0151487 0.00117433 0)
(0.0100808 0.000863511 0)
(0.00602967 0.000631319 0)
(0.00290154 0.000436089 0)
(0.000795524 0.000192845 0)
(-8.19883e-05 -8.73876e-05 0)
(0.000565634 -0.00182058 0)
(0.00437323 -0.00431836 0)
(0.00958092 -0.00511781 0)
(0.014603 -0.00444105 0)
(0.0181606 -0.00299838 0)
(0.0197673 -0.00145769 0)
(0.0194615 -0.000192264 0)
(0.0174546 0.000765897 0)
(0.0138316 0.00162564 0)
(0.00840359 0.00266572 0)
(0.00073375 0.00410342 0)
(-0.00973421 0.00604466 0)
(-0.0235294 0.00849364 0)
(-0.0410143 0.0113833 0)
(-0.062269 0.0145751 0)
(-0.0869862 0.0178436 0)
(-0.114408 0.0208681 0)
(-0.14334 0.0232565 0)
(-0.17226 0.0246 0)
(-0.199487 0.0245413 0)
(-0.223364 0.0228335 0)
(-0.242413 0.019377 0)
(-0.255433 0.014236 0)
(-0.261568 0.00764275 0)
(-0.260344 -1.26329e-05 0)
(-0.251692 -0.00821403 0)
(-0.235807 -0.016391 0)
(-0.213139 -0.0239898 0)
(-0.184452 -0.0304474 0)
(-0.150835 -0.03523 0)
(-0.113697 -0.0378752 0)
(-0.0747383 -0.0380392 0)
(-0.035867 -0.0355776 0)
(0.000982718 -0.0306732 0)
(0.0339654 -0.0238244 0)
(0.0614039 -0.0157571 0)
(0.081981 -0.00729261 0)
(0.0949752 0.000686675 0)
(0.100251 0.00733734 0)
(0.0984238 0.0120771 0)
(0.0909469 0.0147082 0)
(0.079607 0.0154325 0)
(0.06623 0.0147143 0)
(0.0524141 0.0131073 0)
(0.0393374 0.0111173 0)
(0.0276946 0.00911063 0)
(0.0177742 0.00724917 0)
(0.00968277 0.00543502 0)
(0.0037265 0.00334354 0)
(0.000329343 0.000918643 0)
(0.000785662 -0.00449651 0)
(0.00568785 -0.0096965 0)
(0.0117171 -0.010918 0)
(0.0169056 -0.00900596 0)
(0.0197626 -0.00542372 0)
(0.019711 -0.00146914 0)
(0.0166685 0.0021535 0)
(0.0106329 0.0054243 0)
(0.00137882 0.00878246 0)
(-0.0116256 0.0127943 0)
(-0.0290932 0.0178461 0)
(-0.0516518 0.0240146 0)
(-0.0796068 0.0310886 0)
(-0.112728 0.0386042 0)
(-0.150143 0.0458812 0)
(-0.190374 0.0521008 0)
(-0.231533 0.0564393 0)
(-0.271585 0.0582107 0)
(-0.308606 0.0569686 0)
(-0.34097 0.052547 0)
(-0.36744 0.0450453 0)
(-0.387171 0.0347789 0)
(-0.39965 0.0222208 0)
(-0.404617 0.00795103 0)
(-0.401996 -0.00738067 0)
(-0.391763 -0.0230916 0)
(-0.373958 -0.0384699 0)
(-0.348849 -0.0527278 0)
(-0.31692 -0.065031 0)
(-0.278938 -0.07454 0)
(-0.235996 -0.0804802 0)
(-0.189529 -0.0822424 0)
(-0.141297 -0.0794968 0)
(-0.0933028 -0.0722983 0)
(-0.0476601 -0.0611942 0)
(-0.00636301 -0.0471902 0)
(0.0288657 -0.0315778 0)
(0.0566677 -0.0158042 0)
(0.0763508 -0.00115961 0)
(0.0876421 0.0111594 0)
(0.0908037 0.0202451 0)
(0.0870891 0.0257336 0)
(0.0782034 0.0278569 0)
(0.0660366 0.0273046 0)
(0.0523887 0.0249754 0)
(0.0387211 0.0217246 0)
(0.0260341 0.0181225 0)
(0.0149681 0.0142397 0)
(0.00625662 0.00958359 0)
(0.000705246 0.00358701 0)
(0.000917654 -0.00772772 0)
(0.006068 -0.0155936 0)
(0.0115454 -0.0165385 0)
(0.0151625 -0.0124515 0)
(0.0154158 -0.00573271 0)
(0.0117467 0.00170109 0)
(0.00393065 0.00894453 0)
(-0.00838138 0.0161062 0)
(-0.0258546 0.0239491 0)
(-0.0493045 0.0332241 0)
(-0.0793684 0.0442111 0)
(-0.116144 0.0565691 0)
(-0.158963 0.0694222 0)
(-0.206371 0.0815475 0)
(-0.256331 0.0916162 0)
(-0.306557 0.0984423 0)
(-0.354877 0.101178 0)
(-0.399481 0.0994027 0)
(-0.439039 0.0931016 0)
(-0.472671 0.0825761 0)
(-0.499853 0.0683272 0)
(-0.520289 0.0509542 0)
(-0.533785 0.0310851 0)
(-0.540173 0.00935414 0)
(-0.539297 -0.0135761 0)
(-0.530973 -0.036972 0)
(-0.515073 -0.0599878 0)
(-0.491568 -0.0816627 0)
(-0.460562 -0.100929 0)
(-0.42238 -0.116643 0)
(-0.377642 -0.127667 0)
(-0.327359 -0.133005 0)
(-0.273001 -0.131962 0)
(-0.216509 -0.124331 0)
(-0.160195 -0.110544 0)
(-0.106541 -0.0917148 0)
(-0.0578954 -0.0695424 0)
(-0.0161288 -0.0460292 0)
(0.0175645 -0.0230899 0)
(0.0425945 -0.00246759 0)
(0.058899 0.0146011 0)
(0.0667377 0.0271926 0)
(0.067222 0.0349317 0)
(0.061907 0.0381599 0)
(0.0525826 0.0377814 0)
(0.0410402 0.0349315 0)
(0.0288307 0.0305677 0)
(0.0171894 0.025032 0)
(0.00742121 0.0177405 0)
(0.000862103 0.00736622 0)
(0.000999736 -0.0110187 0)
(0.00561046 -0.0208284 0)
(0.00922781 -0.0203483 0)
(0.00967588 -0.0129009 0)
(0.00561648 -0.00193396 0)
(-0.00346919 0.0101296 0)
(-0.0180459 0.0223893 0)
(-0.0388691 0.0352888 0)
(-0.0668729 0.0497679 0)
(-0.102709 0.0663524 0)
(-0.146275 0.0846693 0)
(-0.196497 0.103488 0)
(-0.251434 0.121077 0)
(-0.308639 0.135643 0)
(-0.365606 0.145701 0)
(-0.420156 0.150298 0)
(-0.470644 0.149068 0)
(-0.515987 0.142138 0)
(-0.555555 0.129959 0)
(-0.58902 0.113153 0)
(-0.616228 0.0923929 0)
(-0.637097 0.0683401 0)
(-0.651555 0.0416249 0)
(-0.659523 0.0128747 0)
(-0.660906 -0.0172496 0)
(-0.655571 -0.0480202 0)
(-0.643294 -0.0785881 0)
(-0.623798 -0.107943 0)
(-0.596802 -0.134896 0)
(-0.562075 -0.158089 0)
(-0.519559 -0.176056 0)
(-0.469546 -0.187332 0)
(-0.412853 -0.190656 0)
(-0.350959 -0.185254 0)
(-0.286065 -0.171113 0)
(-0.221006 -0.149162 0)
(-0.15895 -0.12129 0)
(-0.1029 -0.0901026 0)
(-0.055144 -0.058452 0)
(-0.0168699 -0.0288565 0)
(0.0117959 -0.00309187 0)
(0.0312336 0.01764 0)
(0.0419966 0.032669 0)
(0.0452889 0.0418409 0)
(0.04263 0.0456942 0)
(0.0357461 0.0452971 0)
(0.0264003 0.0417589 0)
(0.016251 0.0356 0)
(0.00710991 0.0261578 0)
(0.000796496 0.0113833 0)
(0.000995698 -0.0139234 0)
(0.00416123 -0.0242947 0)
(0.00457947 -0.0208775 0)
(0.000393076 -0.00872428 0)
(-0.00947096 0.00766306 0)
(-0.0255751 0.0256028 0)
(-0.0486626 0.0444935 0)
(-0.0797138 0.0650083 0)
(-0.119443 0.0878038 0)
(-0.167666 0.112566 0)
(-0.223038 0.137841 0)
(-0.283256 0.161473 0)
(-0.345553 0.181244 0)
(-0.407236 0.195375 0)
(-0.466083 0.202795 0)
(-0.52051 0.203161 0)
(-0.569545 0.196696 0)
(-0.61268 0.183978 0)
(-0.649716 0.16575 0)
(-0.68066 0.142796 0)
(-0.70564 0.115875 0)
(-0.724847 0.0856807 0)
(-0.738501 0.052858 0)
(-0.746805 0.0180266 0)
(-0.749871 -0.0182193 0)
(-0.747686 -0.0552786 0)
(-0.74005 -0.0924459 0)
(-0.726539 -0.128827 0)
(-0.706542 -0.163312 0)
(-0.679279 -0.194526 0)
(-0.643952 -0.220805 0)
(-0.599924 -0.24027 0)
(-0.546953 -0.251029 0)
(-0.485482 -0.251489 0)
(-0.416923 -0.240729 0)
(-0.343814 -0.2189 0)
(-0.269731 -0.187514 0)
(-0.198861 -0.149429 0)
(-0.135255 -0.108413 0)
(-0.0819164 -0.0683436 0)
(-0.0401364 -0.0323425 0)
(-0.00953953 -0.00227322 0)
(0.0110413 0.0211321 0)
(0.022797 0.0375925 0)
(0.0271559 0.0473237 0)
(0.0257815 0.0511074 0)
(0.0204643 0.0499377 0)
(0.0130776 0.0443194 0)
(0.00574913 0.0334776 0)
(0.000591003 0.0148943 0)
(0.00083981 -0.0158645 0)
(0.00148321 -0.0247693 0)
(-0.00259745 -0.0166925 0)
(-0.0126893 0.00145338 0)
(-0.0295768 0.0244093 0)
(-0.0539345 0.0495784 0)
(-0.086662 0.0766519 0)
(-0.128519 0.106094 0)
(-0.179378 0.137655 0)
(-0.237813 0.169791 0)
(-0.301294 0.200019 0)
(-0.366791 0.225707 0)
(-0.431388 0.244739 0)
(-0.492722 0.255854 0)
(-0.549136 0.258659 0)
(-0.599635 0.253437 0)
(-0.643742 0.240893 0)
(-0.681356 0.221934 0)
(-0.712659 0.197535 0)
(-0.738042 0.168649 0)
(-0.75803 0.13614 0)
(-0.773207 0.100753 0)
(-0.784155 0.0631293 0)
(-0.791363 0.0238003 0)
(-0.795145 -0.0168075 0)
(-0.795643 -0.058295 0)
(-0.792778 -0.100207 0)
(-0.786111 -0.141944 0)
(-0.774881 -0.182681 0)
(-0.757998 -0.221243 0)
(-0.734119 -0.256012 0)
(-0.701745 -0.284951 0)
(-0.659451 -0.30571 0)
(-0.606267 -0.315852 0)
(-0.542125 -0.31326 0)
(-0.468294 -0.296709 0)
(-0.387671 -0.266457 0)
(-0.304749 -0.22465 0)
(-0.225063 -0.175303 0)
(-0.154083 -0.123649 0)
(-0.0958099 -0.0748815 0)
(-0.0517045 -0.0327943 0)
(-0.0207534 0.000858616 0)
(-0.000748382 0.0259404 0)
(0.0103061 0.0427832 0)
(0.0143126 0.052009 0)
(0.0132069 0.0544146 0)
(0.00901279 0.050353 0)
(0.00400063 0.0389269 0)
(0.000362229 0.0174924 0)
(0.000464973 -0.016097 0)
(-0.00257412 -0.0209722 0)
(-0.0122865 -0.00661525 0)
(-0.0292363 0.0186623 0)
(-0.053954 0.0492767 0)
(-0.0871911 0.0828836 0)
(-0.129672 0.11913 0)
(-0.181403 0.157671 0)
(-0.241063 0.196951 0)
(-0.306061 0.234262 0)
(-0.373163 0.266555 0)
(-0.4392 0.29129 0)
(-0.501568 0.306905 0)
(-0.558422 0.312865 0)
(-0.60865 0.30946 0)
(-0.651746 0.297523 0)
(-0.687682 0.278182 0)
(-0.716817 0.252677 0)
(-0.739807 0.222245 0)
(-0.757495 0.188015 0)
(-0.770799 0.15093 0)
(-0.780627 0.111737 0)
(-0.787786 0.0709869 0)
(-0.792906 0.029033 0)
(-0.796434 -0.0138966 0)
(-0.79865 -0.0576207 0)
(-0.7996 -0.101991 0)
(-0.798967 -0.146782 0)
(-0.796114 -0.191553 0)
(-0.790012 -0.235505 0)
(-0.779167 -0.277377 0)
(-0.76162 -0.315358 0)
(-0.735096 -0.347015 0)
(-0.697308 -0.369379 0)
(-0.646421 -0.379273 0)
(-0.581678 -0.373874 0)
(-0.504093 -0.351474 0)
(-0.41695 -0.312315 0)
(-0.325823 -0.259225 0)
(-0.237868 -0.197633 0)
(-0.16028 -0.134617 0)
(-0.0982423 -0.0770192 0)
(-0.0533173 -0.0293874 0)
(-0.0235813 0.00685996 0)
(-0.00556209 0.0324414 0)
(0.00361352 0.048288 0)
(0.00645777 0.0552442 0)
(0.00528913 0.0535852 0)
(0.00248749 0.0423752 0)
(0.000209243 0.0191566 0)
(-0.000171991 -0.0137866 0)
(-0.00796612 -0.0118295 0)
(-0.0241226 0.010204 0)
(-0.0484395 0.0435081 0)
(-0.0812347 0.082644 0)
(-0.123144 0.125394 0)
(-0.174306 0.170828 0)
(-0.233647 0.21735 0)
(-0.298703 0.262107 0)
(-0.366138 0.301648 0)
(-0.432531 0.332912 0)
(-0.494975 0.353885 0)
(-0.551357 0.363763 0)
(-0.600375 0.362769 0)
(-0.641449 0.351847 0)
(-0.67461 0.332374 0)
(-0.700387 0.305921 0)
(-0.719687 0.274079 0)
(-0.733639 0.238304 0)
(-0.743439 0.199809 0)
(-0.750219 0.159511 0)
(-0.754976 0.118049 0)
(-0.758507 0.075793 0)
(-0.761402 0.0329018 0)
(-0.764118 -0.0105742 0)
(-0.766972 -0.0546603 0)
(-0.770075 -0.0994602 0)
(-0.773338 -0.145042 0)
(-0.776451 -0.191318 0)
(-0.778745 -0.237967 0)
(-0.779036 -0.2843 0)
(-0.775524 -0.329058 0)
(-0.765765 -0.370208 0)
(-0.746747 -0.404857 0)
(-0.715213 -0.429338 0)
(-0.668304 -0.439555 0)
(-0.60445 -0.431709 0)
(-0.524329 -0.403377 0)
(-0.431622 -0.354719 0)
(-0.333156 -0.289386 0)
(-0.237976 -0.214586 0)
(-0.155224 -0.139728 0)
(-0.0912514 -0.0736363 0)
(-0.0474048 -0.0215446 0)
(-0.0204311 0.0157964 0)
(-0.00547346 0.0401081 0)
(0.00120411 0.0527745 0)
(0.00267362 0.0543841 0)
(0.00160587 0.0442 0)
(0.000183933 0.0201675 0)
(-0.00107272 -0.00816535 0)
(-0.0144166 0.00340785 0)
(-0.0373686 0.0341447 0)
(-0.0690445 0.0760477 0)
(-0.1095 0.124135 0)
(-0.158989 0.175948 0)
(-0.216769 0.229513 0)
(-0.28068 0.281872 0)
(-0.34745 0.32921 0)
(-0.413465 0.367861 0)
(-0.475498 0.395194 0)
(-0.531104 0.409962 0)
(-0.578736 0.412198 0)
(-0.617696 0.402903 0)
(-0.64804 0.383702 0)
(-0.670455 0.356537 0)
(-0.686087 0.323409 0)
(-0.696332 0.286158 0)
(-0.702625 0.246304 0)
(-0.706264 0.204972 0)
(-0.70833 0.162906 0)
(-0.70965 0.120525 0)
(-0.710804 0.0779875 0)
(-0.712194 0.0352883 0)
(-0.714137 -0.0076626 0)
(-0.716879 -0.0510259 0)
(-0.720549 -0.0950077 0)
(-0.725264 -0.139805 0)
(-0.73105 -0.185576 0)
(-0.737714 -0.232402 0)
(-0.7447 -0.280158 0)
(-0.750901 -0.328295 0)
(-0.754427 -0.375596 0)
(-0.752434 -0.419898 0)
(-0.741181 -0.457855 0)
(-0.716411 -0.484938 0)
(-0.674131 -0.495881 0)
(-0.611802 -0.485643 0)
(-0.52971 -0.450888 0)
(-0.432053 -0.391678 0)
(-0.327155 -0.312805 0)
(-0.226234 -0.223858 0)
(-0.140483 -0.137193 0)
(-0.0771202 -0.0638317 0)
(-0.036594 -0.00931875 0)
(-0.0137831 0.0267977 0)
(-0.00262757 0.0471437 0)
(0.00130298 0.0532471 0)
(0.0014468 0.0450172 0)
(0.000288209 0.0209451 0)
(-0.00217987 0.00131382 0)
(-0.0214274 0.0250277 0)
(-0.0510227 0.0650684 0)
(-0.0895016 0.115749 0)
(-0.13655 0.172617 0)
(-0.191812 0.232563 0)
(-0.253588 0.292333 0)
(-0.318873 0.347803 0)
(-0.383997 0.394668 0)
(-0.445442 0.429509 0)
(-0.500403 0.450418 0)
(-0.547023 0.457053 0)
(-0.58442 0.450351 0)
(-0.612622 0.432139 0)
(-0.632428 0.404745 0)
(-0.645199 0.370629 0)
(-0.652586 0.332071 0)
(-0.65625 0.290944 0)
(-0.65764 0.248607 0)
(-0.657884 0.205915 0)
(-0.65777 0.163316 0)
(-0.65779 0.12096 0)
(-0.658218 0.078816 0)
(-0.659199 0.036762 0)
(-0.660843 -0.005368 0)
(-0.663285 -0.0477576 0)
(-0.666631 -0.0905841 0)
(-0.671074 -0.134037 0)
(-0.676831 -0.178349 0)
(-0.684094 -0.223786 0)
(-0.692932 -0.270584 0)
(-0.703087 -0.318828 0)
(-0.713671 -0.368232 0)
(-0.722838 -0.41776 0)
(-0.727498 -0.46516 0)
(-0.723242 -0.506578 0)
(-0.704731 -0.536478 0)
(-0.666705 -0.548136 0)
(-0.605584 -0.534939 0)
(-0.521312 -0.492464 0)
(-0.418843 -0.420876 0)
(-0.308409 -0.326729 0)
(-0.203737 -0.2229 0)
(-0.117979 -0.125412 0)
(-0.0584588 -0.0473868 0)
(-0.0236464 0.00623433 0)
(-0.00619068 0.0377545 0)
(0.000678814 0.0503861 0)
(0.00180977 0.0453527 0)
(0.000485802 0.0218726 0)
(-0.00335813 0.0148843 0)
(-0.0283514 0.0528285 0)
(-0.0639653 0.10235 0)
(-0.108202 0.161528 0)
(-0.160269 0.226369 0)
(-0.219093 0.292813 0)
(-0.28215 0.356348 0)
(-0.345927 0.412051 0)
(-0.40672 0.455588 0)
(-0.461362 0.484139 0)
(-0.507626 0.496718 0)
(-0.544358 0.493996 0)
(-0.57146 0.477888 0)
(-0.589763 0.451071 0)
(-0.600789 0.416498 0)
(-0.606413 0.376959 0)
(-0.608518 0.334749 0)
(-0.608709 0.291511 0)
(-0.608168 0.248232 0)
(-0.607645 0.205379 0)
(-0.607528 0.163063 0)
(-0.607957 0.1212 0)
(-0.608931 0.079626 0)
(-0.610385 0.0381655 0)
(-0.612272 -0.00334701 0)
(-0.614638 -0.0450405 0)
(-0.617541 -0.0870144 0)
(-0.621125 -0.129376 0)
(-0.625633 -0.172287 0)
(-0.631406 -0.215982 0)
(-0.638844 -0.26079 0)
(-0.648299 -0.30713 0)
(-0.659857 -0.355386 0)
(-0.672991 -0.405612 0)
(-0.686064 -0.457036 0)
(-0.695826 -0.50739 0)
(-0.697211 -0.552258 0)
(-0.683733 -0.584829 0)
(-0.648761 -0.596538 0)
(-0.587645 -0.578869 0)
(-0.500214 -0.526275 0)
(-0.392684 -0.439516 0)
(-0.277796 -0.328022 0)
(-0.172114 -0.209271 0)
(-0.0902956 -0.103573 0)
(-0.0383235 -0.0252797 0)
(-0.0113386 0.022902 0)
(-0.000155409 0.0453618 0)
(0.00229678 0.0453508 0)
(0.000720602 0.023155 0)
(-0.00444357 0.0323938 0)
(-0.0345361 0.0861454 0)
(-0.0751395 0.144932 0)
(-0.123719 0.211879 0)
(-0.17894 0.283353 0)
(-0.239049 0.354221 0)
(-0.30094 0.418927 0)
(-0.36092 0.472164 0)
(-0.415526 0.509959 0)
(-0.462121 0.53035 0)
(-0.499175 0.533431 0)
(-0.526337 0.520981 0)
(-0.544342 0.495916 0)
(-0.554773 0.461677 0)
(-0.559677 0.421632 0)
(-0.561143 0.378598 0)
(-0.560943 0.334589 0)
(-0.560345 0.290786 0)
(-0.560087 0.247696 0)
(-0.560476 0.205386 0)
(-0.561542 0.163692 0)
(-0.563173 0.122385 0)
(-0.565211 0.0812503 0)
(-0.567502 0.0401213 0)
(-0.569939 -0.00111763 0)
(-0.572526 -0.0425274 0)
(-0.575283 -0.0841374 0)
(-0.578268 -0.125967 0)
(-0.581642 -0.168059 0)
(-0.585673 -0.210517 0)
(-0.590762 -0.253568 0)
(-0.597448 -0.297613 0)
(-0.606347 -0.343251 0)
(-0.617938 -0.391184 0)
(-0.63212 -0.441898 0)
(-0.647546 -0.49499 0)
(-0.660887 -0.54818 0)
(-0.666389 -0.596322 0)
(-0.656288 -0.630968 0)
(-0.622488 -0.641212 0)
(-0.559409 -0.616296 0)
(-0.467253 -0.549784 0)
(-0.354315 -0.444117 0)
(-0.236674 -0.313371 0)
(-0.133893 -0.181264 0)
(-0.060908 -0.0724294 0)
(-0.0200579 -0.000207113 0)
(-0.00226953 0.0369377 0)
(0.00246939 0.0446262 0)
(0.000939972 0.0247527 0)
(-0.00528787 0.0532803 0)
(-0.0394208 0.12392 0)
(-0.0836873 0.191442 0)
(-0.134986 0.265067 0)
(-0.191444 0.341492 0)
(-0.250758 0.414563 0)
(-0.309515 0.477985 0)
(-0.364118 0.526465 0)
(-0.411536 0.5567 0)
(-0.449781 0.567788 0)
(-0.478102 0.561017 0)
(-0.496976 0.539314 0)
(-0.507901 0.50652 0)
(-0.513002 0.466619 0)
(-0.51454 0.42307 0)
(-0.514474 0.378395 0)
(-0.514191 0.334076 0)
(-0.514461 0.290728 0)
(-0.515555 0.24839 0)
(-0.517424 0.20682 0)
(-0.519873 0.165708 0)
(-0.522687 0.124783 0)
(-0.525684 0.0838556 0)
(-0.528722 0.0428103 0)
(-0.531715 0.00158814 0)
(-0.534667 -0.0398248 0)
(-0.537595 -0.0814154 0)
(-0.540491 -0.123155 0)
(-0.543413 -0.165011 0)
(-0.546475 -0.206969 0)
(-0.549897 -0.249086 0)
(-0.554076 -0.291559 0)
(-0.559634 -0.334829 0)
(-0.567404 -0.379672 0)
(-0.578241 -0.42715 0)
(-0.592513 -0.478242 0)
(-0.60922 -0.532966 0)
(-0.624921 -0.588981 0)
(-0.633041 -0.640093 0)
(-0.624363 -0.675618 0)
(-0.589273 -0.681691 0)
(-0.521614 -0.645127 0)
(-0.422874 -0.559357 0)
(-0.304667 -0.430468 0)
(-0.187294 -0.279816 0)
(-0.0928404 -0.138952 0)
(-0.033963 -0.0351904 0)
(-0.00650403 0.0231679 0)
(0.00201198 0.0423088 0)
(0.00111642 0.0264157 0)
(-0.00576972 0.0766383 0)
(-0.0425931 0.164819 0)
(-0.0890353 0.240335 0)
(-0.141387 0.31932 0)
(-0.197299 0.398888 0)
(-0.254105 0.472038 0)
(-0.30833 0.532077 0)
(-0.356677 0.574057 0)
(-0.396674 0.59559 0)
(-0.427048 0.596977 0)
(-0.447835 0.580763 0)
(-0.460264 0.550965 0)
(-0.466392 0.512141 0)
(-0.468587 0.468499 0)
(-0.468995 0.423245 0)
(-0.469173 0.378337 0)
(-0.469989 0.334612 0)
(-0.471724 0.29214 0)
(-0.474286 0.250615 0)
(-0.477427 0.209636 0)
(-0.480886 0.16887 0)
(-0.484465 0.128093 0)
(-0.488041 0.0871812 0)
(-0.491537 0.0460776 0)
(-0.494917 0.00476474 0)
(-0.498213 -0.0367494 0)
(-0.501452 -0.0784405 0)
(-0.504603 -0.120279 0)
(-0.507658 -0.162212 0)
(-0.510613 -0.204174 0)
(-0.513505 -0.246106 0)
(-0.516476 -0.288 0)
(-0.519863 -0.330008 0)
(-0.524313 -0.372597 0)
(-0.53084 -0.416713 0)
(-0.540664 -0.463808 0)
(-0.554625 -0.515431 0)
(-0.572046 -0.572042 0)
(-0.589243 -0.631023 0)
(-0.598535 -0.684562 0)
(-0.588965 -0.718874 0)
(-0.549509 -0.716403 0)
(-0.474217 -0.661716 0)
(-0.367309 -0.549899 0)
(-0.245316 -0.394007 0)
(-0.13334 -0.226068 0)
(-0.0540398 -0.0858325 0)
(-0.0133505 0.00163526 0)
(0.000772779 0.0372183 0)
(0.00125381 0.0277851 0)
(-0.0058136 0.101334 0)
(-0.0438207 0.207363 0)
(-0.0909199 0.290032 0)
(-0.142755 0.372988 0)
(-0.196599 0.453959 0)
(-0.249616 0.525348 0)
(-0.298471 0.580384 0)
(-0.340302 0.614732 0)
(-0.373255 0.627095 0)
(-0.396775 0.619062 0)
(-0.411612 0.594406 0)
(-0.419563 0.558066 0)
(-0.422974 0.515023 0)
(-0.424146 0.469355 0)
(-0.424854 0.423733 0)
(-0.426137 0.379411 0)
(-0.428355 0.336605 0)
(-0.431424 0.294975 0)
(-0.435061 0.25403 0)
(-0.438972 0.213354 0)
(-0.442939 0.172678 0)
(-0.446846 0.131867 0)
(-0.450651 0.0908665 0)
(-0.454342 0.0496648 0)
(-0.457926 0.00826404 0)
(-0.461463 -0.033326 0)
(-0.464993 -0.0750901 0)
(-0.468489 -0.11702 0)
(-0.471922 -0.159082 0)
(-0.475245 -0.201216 0)
(-0.478395 -0.243333 0)
(-0.481323 -0.285325 0)
(-0.484071 -0.327121 0)
(-0.486895 -0.368811 0)
(-0.490441 -0.410872 0)
(-0.495878 -0.454442 0)
(-0.50479 -0.501434 0)
(-0.518484 -0.554043 0)
(-0.536485 -0.613119 0)
(-0.554543 -0.675327 0)
(-0.563403 -0.730236 0)
(-0.550093 -0.75971 0)
(-0.50257 -0.741902 0)
(-0.416515 -0.660262 0)
(-0.301047 -0.515015 0)
(-0.179312 -0.331206 0)
(-0.0805136 -0.154851 0)
(-0.0231572 -0.0304601 0)
(-0.00128172 0.0280229 0)
(0.00137157 0.0284838 0)
(-0.0053963 0.126125 0)
(-0.0430476 0.250043 0)
(-0.0893605 0.339045 0)
(-0.139298 0.424648 0)
(-0.189875 0.505497 0)
(-0.238255 0.573684 0)
(-0.281388 0.622628 0)
(-0.316916 0.648814 0)
(-0.343612 0.652141 0)
(-0.36157 0.63549 0)
(-0.372097 0.603746 0)
(-0.377326 0.562515 0)
(-0.379611 0.516869 0)
(-0.380949 0.470463 0)
(-0.382626 0.42526 0)
(-0.385171 0.381817 0)
(-0.388568 0.339852 0)
(-0.392534 0.298791 0)
(-0.396747 0.25811 0)
(-0.400968 0.217471 0)
(-0.405072 0.176708 0)
(-0.409031 0.135771 0)
(-0.412869 0.0946571 0)
(-0.416615 0.0533779 0)
(-0.420295 0.0119371 0)
(-0.423979 -0.0296654 0)
(-0.42772 -0.071429 0)
(-0.431501 -0.113369 0)
(-0.4353 -0.15548 0)
(-0.439072 -0.197737 0)
(-0.442739 -0.240078 0)
(-0.446184 -0.282394 0)
(-0.449283 -0.324531 0)
(-0.451978 -0.366344 0)
(-0.45444 -0.407855 0)
(-0.45731 -0.449561 0)
(-0.46193 -0.492851 0)
(-0.470268 -0.540228 0)
(-0.484053 -0.594637 0)
(-0.502775 -0.657101 0)
(-0.521057 -0.722671 0)
(-0.527389 -0.776713 0)
(-0.506626 -0.795212 0)
(-0.446813 -0.752027 0)
(-0.347677 -0.632504 0)
(-0.225958 -0.448153 0)
(-0.112332 -0.242551 0)
(-0.036401 -0.0761154 0)
(-0.00422534 0.0132214 0)
(0.0014611 0.0281022 0)
(-0.00454251 0.149771 0)
(-0.0403664 0.291423 0)
(-0.0845992 0.38605 0)
(-0.131499 0.473156 0)
(-0.177938 0.55267 0)
(-0.221211 0.616658 0)
(-0.258645 0.65895 0)
(-0.288406 0.676978 0)
(-0.309837 0.671871 0)
(-0.323556 0.647734 0)
(-0.331234 0.610364 0)
(-0.335092 0.565748 0)
(-0.337274 0.518753 0)
(-0.339347 0.47241 0)
(-0.342104 0.427942 0)
(-0.345683 0.385312 0)
(-0.349848 0.343918 0)
(-0.354264 0.303109 0)
(-0.358667 0.26243 0)
(-0.362914 0.221659 0)
(-0.366973 0.18073 0)
(-0.370879 0.139651 0)
(-0.374693 0.0984479 0)
(-0.378458 0.0571334 0)
(-0.382198 0.0157021 0)
(-0.385983 -0.0258592 0)
(-0.389869 -0.0675621 0)
(-0.39385 -0.10944 0)
(-0.397909 -0.151509 0)
(-0.402025 -0.193778 0)
(-0.406142 -0.236229 0)
(-0.410158 -0.278801 0)
(-0.413918 -0.321367 0)
(-0.41723 -0.363722 0)
(-0.419949 -0.405642 0)
(-0.422169 -0.447079 0)
(-0.424557 -0.488597 0)
(-0.428681 -0.531971 0)
(-0.436949 -0.580499 0)
(-0.451427 -0.63795 0)
(-0.471082 -0.704977 0)
(-0.488513 -0.773387 0)
(-0.4892 -0.821962 0)
(-0.456257 -0.819356 0)
(-0.380069 -0.736949 0)
(-0.267952 -0.568414 0)
(-0.146927 -0.345984 0)
(-0.0533976 -0.137545 0)
(-0.00822352 -0.00881929 0)
(0.00147443 0.0261842 0)
(-0.00331486 0.17113 0)
(-0.0359792 0.330206 0)
(-0.0770288 0.429941 0)
(-0.120004 0.517651 0)
(-0.161731 0.594972 0)
(-0.199729 0.654213 0)
(-0.231744 0.689766 0)
(-0.256436 0.700069 0)
(-0.273626 0.68745 0)
(-0.284295 0.657094 0)
(-0.290271 0.615479 0)
(-0.293661 0.568698 0)
(-0.296265 0.521195 0)
(-0.299197 0.4753 0)
(-0.302845 0.431563 0)
(-0.307099 0.389513 0)
(-0.311643 0.34839 0)
(-0.316186 0.307578 0)
(-0.320558 0.266742 0)
(-0.324711 0.225772 0)
(-0.328678 0.184672 0)
(-0.332527 0.143483 0)
(-0.336329 0.102232 0)
(-0.340126 0.0609239 0)
(-0.343932 0.019539 0)
(-0.347803 -0.0219481 0)
(-0.351805 -0.0635565 0)
(-0.355931 -0.105331 0)
(-0.360168 -0.147303 0)
(-0.36451 -0.1895 0)
(-0.368927 -0.23194 0)
(-0.37336 -0.274614 0)
(-0.377692 -0.317462 0)
(-0.381735 -0.360333 0)
(-0.385239 -0.402966 0)
(-0.387979 -0.445044 0)
(-0.390003 -0.486472 0)
(-0.392068 -0.527975 0)
(-0.396085 -0.571958 0)
(-0.404966 -0.622829 0)
(-0.420867 -0.685108 0)
(-0.441395 -0.757792 0)
(-0.455875 -0.826617 0)
(-0.446281 -0.860772 0)
(-0.395658 -0.821431 0)
(-0.300741 -0.683145 0)
(-0.180751 -0.459476 0)
(-0.0735988 -0.215103 0)
(-0.0135228 -0.0398842 0)
(0.00139001 0.0222492 0)
(-0.00180229 0.189222 0)
(-0.0301574 0.365276 0)
(-0.0671229 0.469832 0)
(-0.105523 0.557537 0)
(-0.14221 0.632165 0)
(-0.174977 0.686516 0)
(-0.201996 0.715636 0)
(-0.22236 0.71896 0)
(-0.236242 0.699919 0)
(-0.244822 0.664597 0)
(-0.249898 0.619916 0)
(-0.25333 0.571859 0)
(-0.25652 0.524329 0)
(-0.260184 0.478974 0)
(-0.264427 0.435801 0)
(-0.269019 0.394065 0)
(-0.273661 0.352972 0)
(-0.278146 0.312004 0)
(-0.282396 0.270948 0)
(-0.286433 0.229779 0)
(-0.290321 0.188546 0)
(-0.294139 0.147291 0)
(-0.297953 0.106035 0)
(-0.301801 0.0647664 0)
(-0.305682 0.0234537 0)
(-0.309639 -0.0179393 0)
(-0.313747 -0.0594356 0)
(-0.318002 -0.10109 0)
(-0.32238 -0.142939 0)
(-0.326886 -0.185022 0)
(-0.331506 -0.227377 0)
(-0.33621 -0.270031 0)
(-0.340931 -0.312984 0)
(-0.34554 -0.35617 0)
(-0.349817 -0.399407 0)
(-0.353455 -0.442355 0)
(-0.356166 -0.484598 0)
(-0.358001 -0.526035 0)
(-0.359923 -0.567763 0)
(-0.36435 -0.613234 0)
(-0.374733 -0.668327 0)
(-0.39276 -0.737712 0)
(-0.413236 -0.816065 0)
(-0.420793 -0.878704 0)
(-0.394558 -0.882503 0)
(-0.321435 -0.784837 0)
(-0.210242 -0.575964 0)
(-0.0954078 -0.306749 0)
(-0.020348 -0.0816496 0)
(0.00125006 0.0158133 0)
(-0.000108969 0.203269 0)
(-0.0232074 0.395709 0)
(-0.0553792 0.505049 0)
(-0.0887568 0.592436 0)
(-0.12026 0.664202 0)
(-0.147974 0.713864 0)
(-0.170472 0.737156 0)
(-0.187198 0.734446 0)
(-0.198547 0.710121 0)
(-0.205742 0.670971 0)
(-0.210417 0.624159 0)
(-0.214105 0.575412 0)
(-0.217831 0.528066 0)
(-0.221999 0.483177 0)
(-0.226549 0.440353 0)
(-0.231226 0.398709 0)
(-0.235795 0.357492 0)
(-0.240135 0.316301 0)
(-0.244242 0.275025 0)
(-0.248173 0.233696 0)
(-0.252005 0.192376 0)
(-0.25581 0.1511 0)
(-0.259649 0.109873 0)
(-0.263551 0.0686709 0)
(-0.267508 0.0274513 0)
(-0.271548 -0.013831 0)
(-0.275759 -0.0552005 0)
(-0.280143 -0.096722 0)
(-0.284662 -0.138436 0)
(-0.28932 -0.180388 0)
(-0.294111 -0.222624 0)
(-0.299019 -0.265192 0)
(-0.30401 -0.308128 0)
(-0.309009 -0.351438 0)
(-0.313869 -0.395041 0)
(-0.318333 -0.438698 0)
(-0.322035 -0.481964 0)
(-0.324645 -0.524319 0)
(-0.326302 -0.56578 0)
(-0.328366 -0.608203 0)
(-0.333982 -0.656727 0)
(-0.346962 -0.71889 0)
(-0.367297 -0.79762 0)
(-0.384921 -0.878244 0)
(-0.37904 -0.920153 0)
(-0.329105 -0.868377 0)
(-0.232645 -0.688437 0)
(-0.116668 -0.408492 0)
(-0.028699 -0.135264 0)
(0.00111694 0.00636515 0)
(0.00165541 0.212714 0)
(-0.0154458 0.420773 0)
(-0.0422801 0.535102 0)
(-0.0703488 0.62214 0)
(-0.0966539 0.691162 0)
(-0.119556 0.736609 0)
(-0.137989 0.754889 0)
(-0.151662 0.74719 0)
(-0.161071 0.718687 0)
(-0.167353 0.676686 0)
(-0.171888 0.628436 0)
(-0.175861 0.579344 0)
(-0.17997 0.532222 0)
(-0.184404 0.487654 0)
(-0.18903 0.444985 0)
(-0.193624 0.403279 0)
(-0.198026 0.361864 0)
(-0.20219 0.320444 0)
(-0.206154 0.278981 0)
(-0.209991 0.237539 0)
(-0.213776 0.196177 0)
(-0.217569 0.154915 0)
(-0.221424 0.113745 0)
(-0.225371 0.0726329 0)
(-0.229396 0.0315275 0)
(-0.233509 -0.00962453 0)
(-0.237817 -0.050848 0)
(-0.242337 -0.09222 0)
(-0.247007 -0.133785 0)
(-0.251834 -0.175592 0)
(-0.256807 -0.217693 0)
(-0.261916 -0.260143 0)
(-0.267141 -0.302999 0)
(-0.272442 -0.346308 0)
(-0.27773 -0.390073 0)
(-0.282832 -0.434176 0)
(-0.287439 -0.478287 0)
(-0.291127 -0.521813 0)
(-0.293569 -0.564168 0)
(-0.295143 -0.605765 0)
(-0.297888 -0.64993 0)
(-0.305843 -0.704304 0)
(-0.322465 -0.777371 0)
(-0.343789 -0.865623 0)
(-0.352656 -0.937111 0)
(-0.324551 -0.93138 0)
(-0.246441 -0.791031 0)
(-0.135325 -0.515287 0)
(-0.0381853 -0.200501 0)
(0.000968448 -0.00656452 0)
(0.0033849 0.217246 0)
(-0.00718143 0.439881 0)
(-0.0282741 0.559645 0)
(-0.0508622 0.646561 0)
(-0.0720296 0.713189 0)
(-0.0903714 0.755092 0)
(-0.105137 0.769309 0)
(-0.116213 0.757699 0)
(-0.124099 0.726045 0)
(-0.129751 0.682003 0)
(-0.134245 0.632809 0)
(-0.138431 0.583547 0)
(-0.142744 0.536597 0)
(-0.14724 0.492195 0)
(-0.151775 0.449532 0)
(-0.156179 0.407678 0)
(-0.160367 0.366046 0)
(-0.164341 0.324423 0)
(-0.168161 0.282821 0)
(-0.171903 0.241311 0)
(-0.175632 0.199944 0)
(-0.179399 0.158727 0)
(-0.183251 0.117637 0)
(-0.187225 0.0766365 0)
(-0.191304 0.03567 0)
(-0.195473 -0.00532514 0)
(-0.199871 -0.0463765 0)
(-0.204532 -0.0875738 0)
(-0.209368 -0.128968 0)
(-0.214383 -0.170613 0)
(-0.219565 -0.212562 0)
(-0.224902 -0.254874 0)
(-0.23038 -0.297614 0)
(-0.235973 -0.340855 0)
(-0.241628 -0.384648 0)
(-0.247235 -0.428977 0)
(-0.252577 -0.473653 0)
(-0.257284 -0.518193 0)
(-0.260884 -0.561831 0)
(-0.26314 -0.604058 0)
(-0.264931 -0.646292 0)
(-0.269347 -0.694474 0)
(-0.281173 -0.759281 0)
(-0.301596 -0.846806 0)
(-0.319353 -0.937782 0)
(-0.309799 -0.973924 0)
(-0.251379 -0.879626 0)
(-0.1499 -0.621999 0)
(-0.048077 -0.275598 0)
(0.0006643 -0.0234202 0)
(0.00493802 0.216677 0)
(0.00128047 0.452694 0)
(-0.0137606 0.578423 0)
(-0.0307778 0.665687 0)
(-0.0469008 0.730448 0)
(-0.0609086 0.769615 0)
(-0.0723155 0.780789 0)
(-0.081121 0.766334 0)
(-0.087748 0.732461 0)
(-0.0929129 0.687042 0)
(-0.0973667 0.637246 0)
(-0.101654 0.587884 0)
(-0.106006 0.541011 0)
(-0.110408 0.496641 0)
(-0.114734 0.453885 0)
(-0.118884 0.411848 0)
(-0.122826 0.370014 0)
(-0.126596 0.328232 0)
(-0.130262 0.286536 0)
(-0.133894 0.244999 0)
(-0.137547 0.20366 0)
(-0.141265 0.162512 0)
(-0.145092 0.121526 0)
(-0.14907 0.0806611 0)
(-0.153186 0.0398636 0)
(-0.157394 -0.000937239 0)
(-0.161867 -0.0417866 0)
(-0.16667 -0.0827735 0)
(-0.171684 -0.123968 0)
(-0.176907 -0.165423 0)
(-0.182326 -0.207196 0)
(-0.187928 -0.249347 0)
(-0.193698 -0.291945 0)
(-0.199616 -0.335073 0)
(-0.205645 -0.378816 0)
(-0.211716 -0.423222 0)
(-0.217681 -0.468222 0)
(-0.223263 -0.51349 0)
(-0.228024 -0.558329 0)
(-0.231481 -0.601826 0)
(-0.233684 -0.643972 0)
(-0.236421 -0.688371 0)
(-0.244131 -0.745084 0)
(-0.26119 -0.826477 0)
(-0.282779 -0.92712 0)
(-0.287508 -0.997932 0)
(-0.248236 -0.95197 0)
(-0.159655 -0.724132 0)
(-0.0575411 -0.357793 0)
(-5.12035e-06 -0.0446276 0)
(0.0061599 0.211237 0)
(0.00957688 0.458768 0)
(0.000935818 0.591344 0)
(-0.0104958 0.679526 0)
(-0.0216739 0.743093 0)
(-0.0315233 0.780407 0)
(-0.0397855 0.789585 0)
(-0.0465221 0.773319 0)
(-0.0520301 0.738075 0)
(-0.0567534 0.691828 0)
(-0.0611172 0.641671 0)
(-0.0653905 0.59222 0)
(-0.0696492 0.545325 0)
(-0.0738403 0.50088 0)
(-0.077881 0.457972 0)
(-0.0817287 0.415748 0)
(-0.0853983 0.373748 0)
(-0.0889442 0.331852 0)
(-0.0924339 0.290108 0)
(-0.095929 0.248581 0)
(-0.099479 0.207299 0)
(-0.103122 0.166247 0)