/*--------------------------------*- C++ -*----------------------------------*\
  =========                 |
  \\      /  F ield         | OpenFOAM: The Open Source CFD Toolbox
   \\    /   O peration     | Website:  https://openfoam.org
    \\  /    A nd           | Version:  7
     \\/     M anipulation  |
\*---------------------------------------------------------------------------*/
FoamFile
{
    version     2.0;
    format      ascii;
    class       volScalarField;
    location    "1950";
    object      p;
}
// * * * * * * * * * * * * * * * * * * * * * * * * * * * * * * * * * * * * * //

dimensions      [0 2 -2 0 0 0 0];

internalField   nonuniform List<scalar> 
2500
(
2.04617e-07
7.11656e-05
-8.74129e-06
-0.000307537
-0.000781913
-0.00136944
-0.00202992
-0.00275883
-0.00358187
-0.00453969
-0.00567235
-0.00700974
-0.00856877
-0.0103492
-0.0123275
-0.0144496
-0.0166235
-0.0187174
-0.0205666
-0.0219889
-0.0228097
-0.0228896
-0.0221534
-0.0206174
-0.0184078
-0.0157508
-0.0129678
-0.0104763
-0.00873808
-0.00819072
-0.00916694
-0.0118032
-0.0159869
-0.0214224
-0.02765
-0.0341081
-0.0402681
-0.0457294
-0.0502609
-0.053788
-0.0563607
-0.0581139
-0.0592224
-0.059862
-0.0601847
-0.0603067
-0.0603057
-0.0602243
-0.060085
-0.0599458
-6.8954e-05
3.86769e-06
-7.99258e-05
-0.000376366
-0.00082874
-0.00137289
-0.00197369
-0.00263257
-0.00337813
-0.00425066
-0.00528901
-0.0065231
-0.00797364
-0.00964837
-0.0115356
-0.0135987
-0.0157667
-0.0179281
-0.0199301
-0.021589
-0.0227125
-0.0231307
-0.02273
-0.0214861
-0.0194942
-0.0169713
-0.0142545
-0.0117793
-0.0100264
-0.00945244
-0.0104058
-0.0130454
-0.0172869
-0.0227805
-0.029024
-0.0354691
-0.0415617
-0.0468611
-0.0511282
-0.0543363
-0.0566033
-0.0581109
-0.0590526
-0.059601
-0.0598925
-0.0600241
-0.0600579
-0.0600233
-0.0599218
-0.0597901
-1.89682e-05
4.973e-05
-5.71745e-05
-0.000379633
-0.000832032
-0.00133861
-0.00186919
-0.00243657
-0.00308181
-0.00385244
-0.00479258
-0.00594258
-0.00734047
-0.00902069
-0.0110032
-0.0132769
-0.0157815
-0.0183954
-0.0209361
-0.0231774
-0.0248799
-0.0258298
-0.0258759
-0.0249669
-0.0231952
-0.0207882
-0.018083
-0.0155134
-0.0135718
-0.0127384
-0.0133949
-0.0157394
-0.0197264
-0.025054
-0.0312133
-0.0375828
-0.0435849
-0.0487775
-0.0528803
-0.0558281
-0.0577511
-0.0588949
-0.0595134
-0.059811
-0.0599324
-0.0599672
-0.0599619
-0.0599264
-0.0598305
-0.0596862
0.00022823
0.0002663
0.000101868
-0.000279427
-0.00075522
-0.00123654
-0.00170244
-0.00218501
-0.00274531
-0.00345437
-0.00438558
-0.0056184
-0.00723764
-0.00932031
-0.0119093
-0.0149845
-0.0184428
-0.0220961
-0.0256885
-0.0289292
-0.031534
-0.0332637
-0.0339534
-0.0335393
-0.0320932
-0.0298184
-0.0270273
-0.0241405
-0.0216529
-0.0200714
-0.0198333
-0.021218
-0.0242738
-0.0287878
-0.0343092
-0.0402348
-0.0459424
-0.0509131
-0.0548518
-0.0576688
-0.0594155
-0.0603038
-0.060615
-0.0606091
-0.0604705
-0.0603089
-0.0601746
-0.0600687
-0.0599387
-0.0597738
0.000707503
0.000677405
0.000418234
-4.39335e-05
-0.000555138
-0.00102903
-0.0014601
-0.00190832
-0.00247436
-0.00328016
-0.00446273
-0.00616989
-0.00854089
-0.0116714
-0.0155756
-0.0201628
-0.0252369
-0.030517
-0.0356724
-0.0403621
-0.0442721
-0.0471451
-0.048802
-0.0491583
-0.0482445
-0.0462065
-0.0433085
-0.0399356
-0.0365604
-0.0336984
-0.0318414
-0.031377
-0.0325068
-0.0351876
-0.0391187
-0.0437947
-0.0486157
-0.053021
-0.0566107
-0.0591979
-0.0608164
-0.0616226
-0.0618078
-0.0616224
-0.0612854
-0.0609401
-0.0606602
-0.0604586
-0.0602823
-0.0601054
0.00146263
0.00132862
0.000949259
0.000397646
-0.000168511
-0.000675026
-0.00114656
-0.00169591
-0.00249232
-0.00374193
-0.00567034
-0.00849163
-0.0123615
-0.0173311
-0.0233205
-0.0301218
-0.0374259
-0.0448612
-0.052034
-0.0585647
-0.0641165
-0.0684179
-0.0712807
-0.072607
-0.0723956
-0.0707296
-0.0678065
-0.0639479
-0.0595625
-0.0551251
-0.0511378
-0.0480722
-0.0462944
-0.04599
-0.0471126
-0.0493787
-0.0523254
-0.0554233
-0.0582054
-0.0603621
-0.0617731
-0.0624875
-0.0626691
-0.0624807
-0.0620941
-0.0616683
-0.0613025
-0.061034
-0.0608287
-0.0606573
0.00253208
0.0022693
0.00176052
0.00110901
0.000452077
-0.000167141
-0.000836756
-0.0017524
-0.00318349
-0.00544014
-0.00882427
-0.0135652
-0.0197599
-0.0273418
-0.036086
-0.0456445
-0.0555931
-0.0654782
-0.0748578
-0.0833324
-0.0905666
-0.0963036
-0.100372
-0.10268
-0.103224
-0.102053
-0.0992943
-0.0951824
-0.0900196
-0.0841785
-0.0780914
-0.0722251
-0.0670369
-0.0629158
-0.0601138
-0.058688
-0.0584795
-0.0591498
-0.0602715
-0.0614428
-0.062376
-0.0629318
-0.0631091
-0.0629958
-0.062696
-0.0623209
-0.0619703
-0.0617015
-0.0615057
-0.0613606
0.00392227
0.00352334
0.00288432
0.00211062
0.00129539
0.000410911
-0.000728069
-0.00243068
-0.00508198
-0.00907603
-0.0147285
-0.0221955
-0.0314306
-0.0421891
-0.0540721
-0.0665864
-0.0792046
-0.0914169
-0.102768
-0.112881
-0.121468
-0.12833
-0.133341
-0.136442
-0.137648
-0.13702
-0.134631
-0.130627
-0.125189
-0.11855
-0.110998
-0.102883
-0.0946165
-0.0866563
-0.0794627
-0.0734358
-0.0688397
-0.065738
-0.0639737
-0.0632142
-0.0630555
-0.0631369
-0.0632137
-0.0631794
-0.06303
-0.062807
-0.0625731
-0.0623822
-0.062242
-0.0621413
0.00557845
0.0050503
0.00427604
0.00333767
0.00223961
0.000843697
-0.00116223
-0.00421411
-0.00878933
-0.0152963
-0.0239648
-0.0347804
-0.0474821
-0.061612
-0.0765927
-0.0918074
-0.106668
-0.120662
-0.133381
-0.144527
-0.153902
-0.161396
-0.166951
-0.170547
-0.172229
-0.172094
-0.170188
-0.166587
-0.161378
-0.154662
-0.146565
-0.13726
-0.126991
-0.116106
-0.10507
-0.0944534
-0.0848762
-0.0768973
-0.0708781
-0.0668694
-0.064593
-0.0635509
-0.0632096
-0.0631545
-0.0631551
-0.0631355
-0.0630908
-0.0630439
-0.0629989
-0.0629538
0.00735026
0.00670707
0.00578644
0.00460145
0.00302339
0.000773421
-0.0026005
-0.00763926
-0.0148425
-0.0245276
-0.0367308
-0.0511865
-0.0673791
-0.0846377
-0.102241
-0.119511
-0.13587
-0.150881
-0.164243
-0.175772
-0.185384
-0.193056
-0.198797
-0.202623
-0.204598
-0.204845
-0.203402
-0.20031
-0.195603
-0.189299
-0.181409
-0.171947
-0.160962
-0.148585
-0.135089
-0.120954
-0.106889
-0.0937854
-0.0825656
-0.0739369
-0.0681493
-0.064902
-0.0634933
-0.0631319
-0.0632072
-0.0633887
-0.0635688
-0.0637067
-0.0637818
-0.0637964
0.00897973
0.0082405
0.007138
0.00557343
0.00324974
-0.00026608
-0.0055494
-0.0131826
-0.0235835
-0.0368651
-0.0527822
-0.0707744
-0.0900764
-0.109852
-0.129316
-0.147817
-0.16488
-0.1802
-0.193617
-0.20507
-0.214568
-0.222156
-0.227883
-0.231787
-0.233932
-0.234445
-0.23336
-0.230709
-0.226507
-0.220748
-0.213394
-0.204376
-0.193609
-0.181026
-0.166644
-0.150661
-0.133571
-0.116242
-0.0998837
-0.0858335
-0.0751626
-0.0682646
-0.0646952
-0.0634267
-0.0633543
-0.0636975
-0.0640962
-0.0644319
-0.0646369
-0.0647117
0.0101134
0.00928301
0.00793154
0.00581011
0.00243412
-0.0027728
-0.0104586
-0.0211524
-0.0350778
-0.0520499
-0.0714942
-0.0925622
-0.114296
-0.135785
-0.156284
-0.175263
-0.192407
-0.207571
-0.220726
-0.231906
-0.241179
-0.248619
-0.254288
-0.258229
-0.260491
-0.261188
-0.260342
-0.257987
-0.254144
-0.24881
-0.241952
-0.233494
-0.223307
-0.211228
-0.197087
-0.180794
-0.162473
-0.142637
-0.122339
-0.103158
-0.0868878
-0.074945
-0.0677466
-0.0645283
-0.0638122
-0.0641786
-0.0647742
-0.0653021
-0.0656392
-0.0657773
0.0103225
0.00938673
0.00769514
0.00481797
8.74528e-05
-0.00717925
-0.0176253
-0.0316218
-0.0491028
-0.0695325
-0.09201
-0.115457
-0.138821
-0.16123
-0.182073
-0.201001
-0.217873
-0.232688
-0.245509
-0.256424
-0.265518
-0.272866
-0.278522
-0.282519
-0.284888
-0.285721
-0.285029
-0.282846
-0.279197
-0.274096
-0.267533
-0.259462
-0.249784
-0.238335
-0.224889
-0.209191
-0.19105
-0.170519
-0.14815
-0.125228
-0.103768
-0.0860623
-0.0737892
-0.0671731
-0.0648961
-0.064941
-0.0656857
-0.0663979
-0.0668754
-0.0670887
0.00916216
0.00809569
0.00596223
0.002142
-0.00418947
-0.0137643
-0.0271326
-0.0444158
-0.0651991
-0.0885909
-0.113417
-0.138467
-0.162706
-0.185396
-0.20612
-0.224721
-0.241209
-0.255676
-0.268235
-0.278984
-0.288001
-0.295341
-0.301045
-0.305128
-0.307606
-0.308554
-0.307971
-0.305886
-0.302327
-0.297315
-0.29086
-0.282952
-0.273542
-0.262524
-0.249714
-0.234838
-0.217565
-0.197607
-0.174958
-0.150246
-0.125078
-0.102009
-0.0838372
-0.0723124
-0.0671251
-0.0661505
-0.0668819
-0.0677865
-0.0684286
-0.0687425
0.00625583
0.00502622
0.0023586
-0.00254652
-0.0106272
-0.0225982
-0.0388358
-0.0591494
-0.0827597
-0.108461
-0.134893
-0.160824
-0.185334
-0.207882
-0.228252
-0.246449
-0.262585
-0.276798
-0.289206
-0.299895
-0.308918
-0.316311
-0.322097
-0.32628
-0.328863
-0.329911
-0.329419
-0.327408
-0.3239
-0.318915
-0.312473
-0.304582
-0.295235
-0.28439
-0.271945
-0.257705
-0.241356
-0.222487
-0.200715
-0.175994
-0.149115
-0.12215
-0.0983262
-0.0808733
-0.0712398
-0.0681181
-0.0684351
-0.0695289
-0.0703719
-0.0708285
0.00136424
-5.91725e-05
-0.00332468
-0.00938641
-0.019244
-0.0335314
-0.0523913
-0.0752958
-0.101127
-0.128439
-0.155789
-0.182019
-0.20639
-0.228568
-0.248513
-0.266342
-0.282216
-0.296278
-0.308627
-0.319321
-0.328391
-0.335855
-0.341726
-0.346001
-0.348676
-0.349811
-0.349402
-0.34746
-0.344003
-0.339045
-0.332601
-0.324687
-0.315312
-0.304476
-0.292151
-0.278242
-0.262546
-0.244704
-0.224217
-0.200602
-0.173822
-0.144973
-0.116826
-0.0933934
-0.0780688
-0.0713687
-0.0705103
-0.0716908
-0.072782
-0.0734377
-0.00556571
-0.00720405
-0.0110906
-0.0183011
-0.0298439
-0.0462223
-0.0673141
-0.0922647
-0.119674
-0.147946
-0.175648
-0.201765
-0.225759
-0.247483
-0.267026
-0.284564
-0.300265
-0.314249
-0.326586
-0.337309
-0.346428
-0.353952
-0.359889
-0.364235
-0.366984
-0.368189
-0.367855
-0.365984
-0.362587
-0.357676
-0.351259
-0.343346
-0.333947
-0.323078
-0.310749
-0.296945
-0.281585
-0.264449
-0.245118
-0.222978
-0.19745
-0.168606
-0.138109
-0.109729
-0.088246
-0.0765788
-0.0734262
-0.0743744
-0.0757728
-0.0766765
-0.0143864
-0.0162466
-0.0207343
-0.0290121
-0.0420503
-0.0601911
-0.0830451
-0.109469
-0.137856
-0.166542
-0.194179
-0.219927
-0.243437
-0.26471
-0.28391
-0.301229
-0.316816
-0.330759
-0.343097
-0.35384
-0.36299
-0.370551
-0.37653
-0.380924
-0.383727
-0.384988
-0.384718
-0.382913
-0.379584
-0.374737
-0.368377
-0.360506
-0.351131
-0.340263
-0.327922
-0.314132
-0.298896
-0.28214
-0.263612
-0.2428
-0.21894
-0.191385
-0.160527
-0.129017
-0.10193
-0.0843929
-0.0776429
-0.0777407
-0.0794683
-0.0806569
-0.0247701
-0.0268434
-0.0318745
-0.0410822
-0.0553613
-0.0748831
-0.0990127
-0.126375
-0.155227
-0.183915
-0.211213
-0.236458
-0.259462
-0.280324
-0.299241
-0.316394
-0.331898
-0.345807
-0.358135
-0.36888
-0.378037
-0.385611
-0.39161
-0.396035
-0.398878
-0.40018
-0.399963
-0.398218
-0.394955
-0.390178
-0.38389
-0.376093
-0.366787
-0.355976
-0.343673
-0.329909
-0.314726
-0.298143
-0.280081
-0.260229
-0.237922
-0.212214
-0.182497
-0.149908
-0.118674
-0.0951883
-0.0836665
-0.0820202
-0.0839738
-0.0854918
-0.0362552
-0.038518
-0.0440082
-0.0539751
-0.0692121
-0.0897278
-0.11468
-0.142522
-0.171446
-0.199851
-0.226654
-0.25135
-0.273871
-0.294372
-0.313055
-0.33007
-0.345499
-0.359366
-0.371667
-0.382394
-0.39154
-0.399111
-0.405116
-0.409558
-0.412429
-0.413762
-0.413589
-0.411895
-0.408691
-0.403981
-0.39777
-0.390059
-0.380847
-0.370135
-0.357928
-0.344247
-0.329135
-0.312657
-0.294848
-0.2756
-0.254485
-0.230612
-0.202848
-0.17094
-0.137509
-0.108908
-0.0919254
-0.0875061
-0.0893802
-0.0913009
-0.0483059
-0.0507217
-0.0565716
-0.0671165
-0.0830318
-0.104185
-0.129572
-0.157535
-0.186252
-0.214205
-0.240446
-0.2646
-0.286681
-0.306869
-0.32535
-0.342243
-0.357594
-0.371406
-0.383665
-0.394359
-0.403482
-0.41104
-0.417042
-0.421494
-0.424386
-0.425742
-0.425605
-0.423953
-0.420799
-0.416149
-0.410009
-0.402383
-0.393273
-0.38268
-0.370605
-0.357059
-0.342076
-0.325722
-0.308084
-0.289204
-0.268904
-0.246547
-0.220929
-0.190869
-0.157191
-0.125025
-0.102617
-0.0944788
-0.0957798
-0.0981964
-0.0603717
-0.0628937
-0.0689994
-0.0799479
-0.0962876
-0.117775
-0.143291
-0.171117
-0.199453
-0.226872
-0.252546
-0.276197
-0.297889
-0.317805
-0.336108
-0.352883
-0.368151
-0.381898
-0.394106
-0.40476
-0.413856
-0.421396
-0.427391
-0.431849
-0.434756
-0.436127
-0.436019
-0.434402
-0.43129
-0.42669
-0.420612
-0.413063
-0.404049
-0.393575
-0.381644
-0.368265
-0.353458
-0.337278
-0.319821
-0.301202
-0.281442
-0.26021
-0.236529
-0.208848
-0.176484
-0.142638
-0.115595
-0.10313
-0.103281
-0.106235
-0.0719379
-0.0745151
-0.0807715
-0.0919663
-0.108515
-0.130094
-0.155515
-0.183038
-0.210905
-0.237775
-0.262917
-0.28612
-0.307473
-0.327153
-0.345295
-0.361956
-0.377139
-0.390819
-0.402973
-0.413587
-0.422654
-0.430177
-0.436165
-0.440625
-0.443546
-0.444926
-0.444842
-0.443251
-0.440171
-0.435611
-0.429583
-0.422098
-0.413167
-0.402801
-0.391009
-0.377801
-0.363195
-0.347232
-0.329996
-0.311624
-0.292254
-0.271822
-0.249705
-0.224428
-0.194368
-0.160656
-0.130343
-0.113472
-0.111941
-0.115357
-0.0825855
-0.0851238
-0.0914471
-0.10275
-0.119331
-0.14082
-0.165995
-0.193124
-0.220497
-0.24685
-0.27152
-0.294337
-0.315403
-0.334878
-0.352874
-0.369429
-0.38453
-0.398146
-0.410251
-0.420829
-0.429873
-0.437384
-0.443365
-0.447827
-0.450758
-0.452144
-0.452078
-0.450507
-0.44745
-0.442919
-0.436926
-0.429489
-0.420623
-0.410345
-0.398674
-0.385626
-0.371219
-0.355491
-0.338511
-0.32041
-0.301377
-0.281531
-0.260603
-0.237457
-0.210126
-0.17799
-0.14605
-0.125263
-0.121661
-0.12532
-0.0919967
-0.0943424
-0.100666
-0.11197
-0.128445
-0.149712
-0.174548
-0.201246
-0.228148
-0.254043
-0.278313
-0.300812
-0.321639
-0.34094
-0.35881
-0.37527
-0.390298
-0.40386
-0.415926
-0.426478
-0.435509
-0.443013
-0.448994
-0.453459
-0.456398
-0.457792
-0.457736
-0.456178
-0.453134
-0.448617
-0.442645
-0.435236
-0.426412
-0.416199
-0.404622
-0.391706
-0.377479
-0.361976
-0.345263
-0.327457
-0.308756
-0.289383
-0.269349
-0.247949
-0.223332
-0.193707
-0.161747
-0.137972
-0.132098
-0.135702
-0.0999231
-0.101941
-0.108157
-0.119383
-0.13565
-0.156601
-0.181044
-0.207315
-0.233795
-0.259308
-0.283259
-0.305506
-0.326143
-0.345303
-0.363068
-0.37945
-0.394421
-0.407944
-0.419986
-0.430527
-0.439556
-0.447065
-0.453053
-0.457525
-0.460473
-0.461878
-0.461827
-0.460277
-0.457235
-0.452719
-0.446748
-0.439344
-0.430536
-0.420356
-0.408838
-0.396017
-0.381932
-0.366626
-0.350162
-0.332652
-0.314287
-0.295335
-0.275996
-0.255964
-0.233782
-0.207101
-0.17645
-0.15085
-0.142708
-0.145963
-0.106198
-0.107799
-0.113764
-0.124839
-0.140829
-0.161402
-0.185428
-0.21129
-0.237405
-0.262615
-0.286325
-0.308386
-0.328879
-0.34793
-0.365614
-0.381939
-0.396874
-0.410378
-0.422416
-0.432964
-0.442008
-0.449536
-0.455542
-0.460029
-0.462989
-0.464406
-0.464357
-0.462813
-0.459762
-0.455233
-0.449244
-0.441822
-0.432999
-0.422815
-0.411314
-0.398543
-0.38455
-0.36939
-0.353134
-0.335892
-0.317849
-0.299287
-0.280516
-0.261544
-0.2414
-0.217699
-0.189289
-0.16305
-0.152855
-0.155533
-0.110754
-0.111881
-0.117447
-0.128276
-0.143929
-0.164072
-0.187655
-0.213125
-0.238932
-0.263921
-0.287476
-0.309425
-0.329833
-0.348816
-0.366448
-0.38274
-0.397662
-0.411171
-0.423227
-0.433803
-0.442879
-0.450439
-0.456473
-0.460977
-0.463945
-0.465366
-0.465314
-0.463773
-0.460707
-0.45615
-0.450125
-0.442659
-0.433789
-0.423565
-0.412039
-0.399267
-0.38531
-0.370233
-0.354121
-0.33709
-0.319328
-0.301117
-0.282827
-0.264681
-0.24617
-0.225218
-0.199575
-0.173755
-0.161906
-0.163868
-0.11362
-0.114241
-0.119272
-0.129742
-0.144992
-0.16465
-0.187752
-0.212825
-0.238353
-0.263175
-0.286641
-0.308543
-0.328918
-0.347877
-0.365496
-0.38179
-0.396732
-0.410278
-0.422387
-0.433024
-0.442164
-0.449788
-0.455882
-0.460435
-0.463441
-0.464884
-0.464808
-0.463236
-0.46012
-0.455497
-0.449393
-0.441844
-0.432893
-0.422589
-0.410991
-0.398164
-0.384179
-0.369117
-0.353073
-0.336177
-0.318624
-0.300704
-0.282817
-0.265322
-0.248084
-0.229511
-0.206814
-0.182252
-0.169291
-0.17049
-0.114902
-0.11502
-0.119395
-0.129366
-0.144127
-0.163229
-0.185795
-0.21044
-0.235694
-0.260383
-0.283811
-0.30572
-0.326116
-0.345095
-0.362737
-0.379065
-0.394057
-0.407671
-0.419861
-0.430588
-0.439821
-0.447534
-0.453708
-0.458327
-0.461384
-0.462866
-0.462792
-0.461201
-0.458034
-0.453335
-0.447135
-0.439467
-0.430377
-0.419925
-0.408179
-0.395218
-0.381129
-0.366002
-0.349941
-0.333089
-0.315654
-0.29794
-0.280369
-0.263383
-0.247123
-0.230509
-0.210685
-0.187971
-0.174511
-0.174978
-0.114778
-0.114429
-0.11805
-0.127349
-0.141499
-0.15995
-0.181894
-0.206047
-0.230996
-0.255556
-0.278978
-0.300941
-0.321406
-0.340452
-0.358158
-0.374556
-0.389634
-0.403351
-0.415658
-0.426511
-0.435869
-0.443702
-0.449984
-0.454693
-0.457818
-0.459346
-0.459279
-0.457666
-0.454442
-0.44965
-0.443328
-0.435511
-0.42625
-0.415608
-0.403661
-0.390493
-0.376201
-0.360891
-0.344692
-0.327768
-0.310344
-0.292732
-0.275375
-0.258769
-0.243249
-0.228186
-0.210995
-0.19048
-0.177142
-0.176969
-0.113476
-0.112731
-0.115537
-0.12397
-0.137338
-0.155005
-0.1762
-0.19975
-0.224314
-0.248707
-0.272125
-0.294171
-0.31475
-0.33391
-0.351727
-0.368241
-0.383447
-0.397308
-0.409774
-0.420793
-0.430318
-0.438309
-0.444731
-0.449559
-0.452773
-0.454359
-0.454305
-0.452672
-0.449384
-0.444484
-0.438016
-0.430017
-0.420539
-0.409652
-0.397436
-0.383986
-0.369406
-0.353817
-0.337362
-0.320223
-0.302654
-0.285008
-0.267746
-0.251393
-0.236413
-0.222533
-0.207647
-0.189471
-0.176814
-0.176137
-0.111261
-0.110219
-0.112194
-0.119563
-0.131934
-0.148635
-0.16891
-0.191691
-0.215731
-0.239865
-0.263238
-0.285371
-0.306097
-0.325421
-0.343403
-0.360084
-0.375469
-0.389524
-0.402196
-0.413429
-0.423166
-0.431357
-0.43796
-0.442941
-0.446271
-0.447934
-0.447912
-0.446257
-0.442905
-0.437886
-0.431248
-0.423033
-0.413295
-0.402105
-0.389552
-0.375734
-0.360768
-0.344785
-0.327946
-0.310458
-0.292602
-0.27476
-0.257438
-0.241194
-0.226573
-0.213553
-0.200602
-0.184737
-0.173204
-0.172186
-0.108411
-0.107186
-0.108368
-0.114505
-0.125629
-0.14113
-0.160263
-0.182053
-0.205365
-0.229082
-0.252315
-0.274503
-0.295392
-0.314925
-0.333131
-0.350044
-0.365669
-0.379977
-0.392914
-0.404416
-0.414419
-0.422861
-0.42969
-0.434863
-0.438345
-0.440112
-0.440143
-0.438473
-0.435059
-0.429914
-0.423087
-0.414626
-0.404583
-0.393035
-0.380071
-0.365798
-0.350339
-0.33384
-0.316479
-0.298489
-0.280185
-0.261989
-0.24445
-0.228164
-0.213726
-0.201265
-0.189868
-0.176159
-0.166028
-0.164834
-0.105194
-0.103899
-0.104377
-0.10918
-0.118802
-0.132823
-0.150535
-0.171054
-0.193367
-0.216437
-0.239369
-0.261531
-0.282571
-0.302351
-0.320846
-0.338067
-0.354011
-0.368647
-0.38192
-0.393759
-0.404091
-0.412844
-0.419954
-0.425369
-0.429044
-0.430947
-0.431056
-0.429387
-0.425918
-0.420644
-0.413613
-0.404876
-0.394488
-0.382524
-0.369077
-0.354258
-0.338198
-0.321054
-0.303026
-0.284375
-0.265453
-0.246729
-0.228806
-0.212327
-0.197928
-0.185744
-0.175504
-0.163696
-0.155037
-0.153809
-0.101845
-0.100577
-0.100484
-0.103941
-0.11185
-0.124081
-0.140041
-0.158946
-0.179921
-0.202039
-0.224436
-0.246429
-0.267567
-0.287613
-0.306463
-0.324081
-0.340442
-0.355504
-0.369204
-0.381465
-0.392204
-0.401339
-0.408795
-0.414509
-0.418426
-0.420508
-0.420726
-0.419082
-0.415569
-0.410167
-0.402922
-0.393886
-0.383113
-0.370679
-0.356676
-0.341219
-0.324446
-0.306528
-0.287686
-0.268213
-0.248502
-0.229077
-0.210596
-0.193757
-0.179251
-0.167137
-0.157642
-0.14739
-0.140045
-0.138854
-0.0985506
-0.0973791
-0.0968779
-0.0990811
-0.105149
-0.115291
-0.129123
-0.146015
-0.165246
-0.186032
-0.207581
-0.229189
-0.250319
-0.270618
-0.289882
-0.307999
-0.324895
-0.340504
-0.354747
-0.367538
-0.378782
-0.388387
-0.396267
-0.402348
-0.406568
-0.408878
-0.409244
-0.407656
-0.404118
-0.398596
-0.391131
-0.381775
-0.370583
-0.357626
-0.342997
-0.326813
-0.309219
-0.290401
-0.270602
-0.250149
-0.229487
-0.209194
-0.189991
-0.172628
-0.157833
-0.145652
-0.13648
-0.127363
-0.120949
-0.11974
-0.095441
-0.0944058
-0.0936655
-0.0948017
-0.0990211
-0.10683
-0.118143
-0.132569
-0.149589
-0.168595
-0.188907
-0.209842
-0.230793
-0.25129
-0.271005
-0.28972
-0.307286
-0.323589
-0.338521
-0.351976
-0.363847
-0.374031
-0.382431
-0.388962
-0.393556
-0.396154
-0.396717
-0.395223
-0.391685
-0.386055
-0.378371
-0.368682
-0.357041
-0.343515
-0.328197
-0.311205
-0.292691
-0.272856
-0.251969
-0.230397
-0.208636
-0.187326
-0.167247
-0.149201
-0.133941
-0.121521
-0.112282
-0.103801
-0.0977412
-0.0962299
-0.0925938
-0.091713
-0.0908873
-0.0912024
-0.093692
-0.0990263
-0.107455
-0.11893
-0.13322
-0.149943
-0.168569
-0.188472
-0.209006
-0.22959
-0.249757
-0.269157
-0.287534
-0.304696
-0.320488
-0.334772
-0.34742
-0.358315
-0.36735
-0.374433
-0.379485
-0.382443
-0.383262
-0.38191
-0.378402
-0.372688
-0.364793
-0.354765
-0.342654
-0.328524
-0.312465
-0.294598
-0.275083
-0.254137
-0.232058
-0.209254
-0.186275
-0.163822
-0.142736
-0.123855
-0.10795
-0.0950351
-0.0854047
-0.0769307
-0.070471
-0.0679831
-0.0900413
-0.0893234
-0.088535
-0.0882877
-0.0892633
-0.0921047
-0.0973578
-0.105408
-0.116424
-0.130324
-0.146776
-0.165242
-0.185064
-0.205567
-0.226139
-0.246278
-0.265591
-0.283783
-0.300621
-0.315919
-0.329519
-0.341283
-0.351092
-0.358846
-0.364458
-0.367861
-0.369005
-0.367854
-0.364415
-0.358648
-0.350563
-0.340201
-0.327614
-0.312861
-0.296033
-0.277251
-0.256685
-0.234571
-0.211235
-0.187128
-0.162852
-0.139167
-0.11696
-0.0970943
-0.0803352
-0.0666162
-0.0562787
-0.0470217
-0.0393413
-0.0345996
-0.0877748
-0.0872326
-0.0865719
-0.0859862
-0.0856963
-0.0861323
-0.0880313
-0.0922524
-0.0994757
-0.110018
-0.123802
-0.14041
-0.159196
-0.179403
-0.200282
-0.221167
-0.241509
-0.26088
-0.278946
-0.295451
-0.31019
-0.322997
-0.333737
-0.342297
-0.348586
-0.352533
-0.354084
-0.353204
-0.349887
-0.344112
-0.335869
-0.325198
-0.312149
-0.296784
-0.279189
-0.259493
-0.237876
-0.21459
-0.189992
-0.16457
-0.13897
-0.113996
-0.0905621
-0.0695401
-0.0516657
-0.036794
-0.0253738
-0.0144039
-0.00499063
0.00397954
-0.0857375
-0.0854012
-0.084938
-0.0841656
-0.0828114
-0.0809789
-0.0794736
-0.0795982
-0.0826142
-0.0893348
-0.100003
-0.114362
-0.131791
-0.151469
-0.172516
-0.194104
-0.215515
-0.23617
-0.255614
-0.273499
-0.289557
-0.303582
-0.315413
-0.324924
-0.332018
-0.336618
-0.338672
-0.338143
-0.335017
-0.329292
-0.320946
-0.310016
-0.296554
-0.280623
-0.262314
-0.241761
-0.219155
-0.194767
-0.168976
-0.142298
-0.115404
-0.0891121
-0.0643326
-0.0419101
-0.0225339
-0.00601717
0.0070747
0.0208229
0.0317384
0.0475651
-0.0838085
-0.083733
-0.0835255
-0.0826221
-0.08029
-0.0763042
-0.0714576
-0.0674134
-0.066008
-0.0686056
-0.0758354
-0.0876377
-0.103443
-0.122375
-0.143435
-0.165636
-0.188098
-0.210081
-0.230995
-0.250385
-0.267905
-0.283297
-0.296365
-0.306964
-0.314986
-0.320354
-0.323012
-0.322924
-0.320076
-0.314477
-0.306108
-0.295001
-0.281213
-0.264814
-0.245903
-0.22462
-0.201169
-0.175833
-0.149004
-0.121206
-0.0931013
-0.065479
-0.0391927
-0.0150078
0.00647576
0.0255016
0.0414741
0.0594561
0.0717871
0.098241
-0.0817932
-0.0820452
-0.0821265
-0.081037
-0.0776713
-0.0715842
-0.0635501
-0.0554958
-0.0497443
-0.0481891
-0.0518722
-0.0609688
-0.0749851
-0.0930087
-0.113935
-0.136638
-0.160077
-0.18336
-0.205759
-0.226706
-0.245768
-0.262621
-0.27703
-0.288824
-0.29788
-0.304117
-0.307477
-0.307928
-0.305455
-0.300074
-0.291786
-0.280621
-0.266641
-0.249928
-0.230591
-0.208781
-0.184709
-0.158666
-0.131035
-0.102314
-0.0731159
-0.0441407
-0.0161215
0.0103243
0.0347624
0.0576234
0.078516
0.103286
0.120282
0.16332
-0.0794778
-0.0800855
-0.0804529
-0.0790131
-0.0744142
-0.066204
-0.0552244
-0.0435636
-0.0338815
-0.0284957
-0.0288265
-0.0352965
-0.0475142
-0.0645575
-0.085242
-0.108322
-0.13262
-0.157106
-0.180922
-0.203389
-0.223983
-0.242315
-0.258101
-0.27114
-0.281293
-0.288469
-0.292611
-0.293689
-0.291694
-0.28664
-0.278556
-0.267476
-0.253479
-0.236657
-0.217131
-0.19506
-0.170657
-0.144202
-0.116047
-0.086624
-0.056439
-0.0260386
0.00404252
0.0334176
0.0619057
0.0902568
0.118477
0.153657
0.183432
0.248113
-0.0769663
-0.0778154
-0.0783137
-0.0762688
-0.0702195
-0.0597913
-0.0461226
-0.0314646
-0.0185859
-0.0100484
-0.00755819
-0.0117527
-0.0223542
-0.0384625
-0.0588515
-0.0821915
-0.107199
-0.132728
-0.157811
-0.181667
-0.20369
-0.223425
-0.240541
-0.254803
-0.266053
-0.27419
-0.279156
-0.280925
-0.279497
-0.274889
-0.26714
-0.256299
-0.242465
-0.225753
-0.206291
-0.184239
-0.159798
-0.133215
-0.104786
-0.0748387
-0.0437172
-0.0117385
0.0208692
0.0540991
0.0881955
0.12435
0.162876
0.212531
0.260029
0.338592
-0.0755441
-0.0762425
-0.0763712
-0.0731474
-0.0652675
-0.0526147
-0.0365339
-0.0195353
-0.00439636
0.0063808
0.0108976
0.00837207
-0.000995039
-0.0163425
-0.0364461
-0.0599391
-0.0854722
-0.111819
-0.137928
-0.162941
-0.186183
-0.207139
-0.225434
-0.240804
-0.25307
-0.262121
-0.267895
-0.270371
-0.269555
-0.265481
-0.258203
-0.247765
-0.234253
-0.217813
-0.198595
-0.176757
-0.152475
-0.125948
-0.0973918
-0.0670046
-0.0349283
-0.00117017
0.0345009
0.0727516
0.114749
0.162822
0.21804
0.289162
0.349524
0.424491
-0.0797169
-0.079018
-0.07741
-0.0718009
-0.0612538
-0.0460141
-0.0276864
-0.00887262
0.00764666
0.0196592
0.0253994
0.0238658
0.0152454
0.000377194
-0.0195394
-0.0431355
-0.0690343
-0.0959652
-0.122826
-0.148703
-0.172871
-0.194773
-0.213998
-0.230257
-0.243353
-0.253167
-0.259632
-0.262729
-0.262469
-0.258894
-0.252065
-0.242073
-0.228995
-0.212912
-0.193983
-0.172386
-0.148284
-0.121832
-0.0931596
-0.0623315
-0.0292628
0.00641088
0.0455384
0.0898337
0.142215
0.207906
0.291699
0.403615
0.495872
0.603448
-0.10315
-0.0953303
-0.0868854
-0.0760973
-0.0617335
-0.0434004
-0.0227427
-0.0023393
0.0153615
0.0281484
0.034331
0.0332218
0.0250117
0.0104909
-0.00918671
-0.0326866
-0.0586476
-0.0857949
-0.113007
-0.139342
-0.164043
-0.186522
-0.206343
-0.223192
-0.236859
-0.247211
-0.254179
-0.257739
-0.257903
-0.254714
-0.248238
-0.238561
-0.22578
-0.210005
-0.191362
-0.169991
-0.14604
-0.119636
-0.0908409
-0.0595932
-0.0255911
0.0119088
0.0544215
0.104867
0.168374
0.254435
0.375724
0.555766
0.767723
1.10788
-0.189986
-0.112231
-0.0806444
-0.0714159
-0.0581374
-0.0387618
-0.017061
0.00395007
0.0217617
0.0341978
0.0398527
0.0382426
0.0296396
0.0148631
-0.00494036
-0.0284726
-0.0544182
-0.0815416
-0.108748
-0.13511
-0.159875
-0.182455
-0.202407
-0.219411
-0.233249
-0.243783
-0.250939
-0.254688
-0.255043
-0.252044
-0.245756
-0.236264
-0.223666
-0.208072
-0.189604
-0.168393
-0.144574
-0.118242
-0.0894047
-0.0579023
-0.0232688
0.0155194
0.0604544
0.115278
0.186549
0.286611
0.435354
0.68041
1.0794
1.82856
)
;

boundaryField
{
    movingWall
    {
        type            zeroGradient;
    }
    fixedWalls
    {
        type            zeroGradient;
    }
    frontAndBack
    {
        type            empty;
    }
}


// ************************************************************************* //
