/*--------------------------------*- C++ -*----------------------------------*\
  =========                 |
  \\      /  F ield         | OpenFOAM: The Open Source CFD Toolbox
   \\    /   O peration     | Website:  https://openfoam.org
    \\  /    A nd           | Version:  7
     \\/     M anipulation  |
\*---------------------------------------------------------------------------*/
FoamFile
{
    version     2.0;
    format      ascii;
    class       surfaceScalarField;
    location    "1950";
    object      phi;
}
// * * * * * * * * * * * * * * * * * * * * * * * * * * * * * * * * * * * * * //

dimensions      [0 3 -1 0 0 0 0];

internalField   nonuniform List<scalar> 
4900
(
1.69925e-06
-1.70421e-06
6.22361e-06
-4.52439e-06
1.17163e-05
-5.49266e-06
1.65022e-05
-4.78597e-06
1.97496e-05
-3.24742e-06
2.13888e-05
-1.63913e-06
2.17673e-05
-3.78569e-07
2.12619e-05
5.05439e-07
2.00156e-05
1.24622e-06
1.78647e-05
2.15096e-06
1.44158e-05
3.44885e-06
9.18219e-06
5.23358e-06
1.67279e-06
7.50938e-06
-8.56437e-06
1.02371e-05
-2.18786e-05
1.33143e-05
-3.84327e-05
1.65541e-05
-5.81308e-05
1.96981e-05
-8.05372e-05
2.24064e-05
-0.000104813
2.42761e-05
-0.000129702
2.48888e-05
-0.000153576
2.38739e-05
-0.000174549
2.09725e-05
-0.000190638
1.60895e-05
-0.00019997
9.33177e-06
-0.000201024
1.05398e-06
-0.00019286
-8.16436e-06
-0.000175233
-1.76266e-05
-0.000148666
-2.65667e-05
-0.000114455
-3.42118e-05
-7.46238e-05
-3.98308e-05
-3.1826e-05
-4.27978e-05
1.08231e-05
-4.26491e-05
5.00669e-05
-3.92438e-05
8.3055e-05
-3.29881e-05
0.000107612
-2.45573e-05
0.000122475
-1.48631e-05
0.000127531
-5.05601e-06
0.000123863
3.66826e-06
0.000113469
1.03943e-05
9.87404e-05
1.47284e-05
8.20208e-05
1.67195e-05
6.52473e-05
1.67736e-05
4.97647e-05
1.54825e-05
3.63068e-05
1.34579e-05
2.51006e-05
1.12062e-05
1.60379e-05
9.06264e-06
8.89202e-06
7.14591e-06
3.59351e-06
5.2985e-06
5.04918e-07
3.08859e-06
5.04917e-07
4.47452e-06
-6.17876e-06
1.38483e-05
-1.38982e-05
2.43104e-05
-1.59547e-05
3.28987e-05
-1.33743e-05
3.80015e-05
-8.35026e-06
3.92284e-05
-2.86597e-06
3.68609e-05
1.98881e-06
3.12062e-05
6.1602e-06
2.2156e-05
1.02963e-05
9.08266e-06
1.52243e-05
-9.01087e-06
2.15423e-05
-3.32252e-05
2.94479e-05
-6.446e-05
3.87441e-05
-0.000103155
4.89318e-05
-0.00014908
5.92392e-05
-0.000201175
6.86493e-05
-0.000257494
7.60168e-05
-0.000315326
8.02385e-05
-0.000371474
8.04246e-05
-0.000422604
7.60186e-05
-0.000465577
6.68469e-05
-0.000497714
5.3109e-05
-0.000516961
3.53366e-05
-0.000521978
1.43495e-05
-0.000512221
-8.70321e-06
-0.00048778
-3.26057e-05
-0.000449292
-5.61145e-05
-0.000397964
-7.78946e-05
-0.000335625
-9.65509e-05
-0.000264747
-0.000110709
-0.000188421
-0.000119124
-0.000110224
-0.000120846
-3.40371e-05
-0.00011543
3.6066e-05
-0.000103091
9.63953e-05
-8.48866e-05
0.000144136
-6.2604e-05
0.000177366
-3.82864e-05
0.000195297
-1.42627e-05
0.000198524
7.1678e-06
0.000189145
2.41075e-05
0.000170309
3.55553e-05
0.000145608
4.14747e-05
0.00011845
4.26399e-05
9.1602e-05
4.03063e-05
6.69289e-05
3.58794e-05
4.54176e-05
3.05739e-05
2.7458e-05
2.51055e-05
1.33342e-05
1.94224e-05
3.75509e-06
1.26677e-05
4.26e-06
5.98711e-06
-1.21659e-05
1.73369e-05
-2.5248e-05
2.88014e-05
-2.74193e-05
3.68224e-05
-2.13954e-05
3.95383e-05
-1.10661e-05
3.63602e-05
3.1207e-07
2.72252e-05
1.11238e-05
1.19262e-05
2.14592e-05
-1.03015e-05
3.2524e-05
-4.07346e-05
4.56574e-05
-8.07328e-05
6.15405e-05
-0.000131219
7.99344e-05
-0.000192259
9.97842e-05
-0.000262749
0.000119422
-0.000340343
0.000136833
-0.000421685
0.000149991
-0.000502858
0.00015719
-0.000579909
0.00015729
-0.000649295
0.00014981
-0.000708153
0.000134876
-0.000754393
0.000113087
-0.000786662
8.53776e-05
-0.000804201
5.28756e-05
-0.000806658
1.68059e-05
-0.000793888
-2.14727e-05
-0.00076591
-6.05842e-05
-0.000723042
-9.89818e-05
-0.00066602
-0.000134917
-0.000596074
-0.000166497
-0.00051505
-0.000191733
-0.000425476
-0.000208699
-0.00033055
-0.000215772
-0.000234054
-0.000211926
-0.000140124
-0.000197021
-5.29907e-05
-0.00017202
2.33827e-05
-0.000138977
8.60254e-05
-0.000100929
0.000133146
-6.13833e-05
0.000163778
-2.34642e-05
0.000178065
9.82029e-06
0.000177546
3.60741e-05
0.000165025
5.39963e-05
0.000144049
6.36156e-05
0.000118301
6.60543e-05
9.10409e-05
6.31395e-05
6.47424e-05
5.68723e-05
4.1064e-05
4.87838e-05
2.1207e-05
3.92794e-05
6.60685e-06
2.72678e-05
1.08668e-05
6.50862e-06
-1.86745e-05
1.75972e-05
-3.63367e-05
2.69529e-05
-3.6775e-05
3.0761e-05
-2.52035e-05
2.72153e-05
-7.52052e-06
1.56228e-05
1.19046e-05
-4.55182e-06
3.12984e-05
-3.43223e-05
5.12296e-05
-7.52114e-05
7.34131e-05
-0.000128696
9.9142e-05
-0.000195507
0.000128351
-0.000275063
0.000159491
-0.000365241
0.000189962
-0.000462552
0.000216733
-0.000562685
0.000236966
-0.000661191
0.000248497
-0.000754092
0.000250091
-0.000838253
0.00024145
-0.000911464
0.000223022
-0.000972314
0.000195726
-0.00101997
0.000160746
-0.00105396
0.000119364
-0.00107393
7.28434e-05
-0.00107954
2.24151e-05
-0.0010704
-3.0613e-05
-0.00104622
-8.47608e-05
-0.00100686
-0.000138344
-0.00095236
-0.000189413
-0.00088314
-0.000235717
-0.000800142
-0.000274732
-0.000705001
-0.000303839
-0.0006002
-0.000320573
-0.000489156
-0.00032297
-0.000376146
-0.000310031
-0.000266006
-0.00028216
-0.000163587
-0.000241397
-7.32053e-05
-0.000191311
1.86706e-06
-0.000136456
6.00572e-05
-8.16544e-05
0.000101062
-3.11844e-05
0.000125136
1.19998e-05
0.000133571
4.55612e-05
0.000128873
6.83136e-05
0.000114339
8.05889e-05
9.35506e-05
8.39275e-05
6.98711e-05
8.05519e-05
4.61163e-05
7.25387e-05
2.46362e-05
6.07595e-05
7.92821e-06
4.39757e-05
1.87951e-05
6.20573e-06
-2.48803e-05
1.48973e-05
-4.50283e-05
1.921e-05
-4.10877e-05
1.54828e-05
-2.14763e-05
2.16889e-06
5.79341e-06
-2.16157e-05
3.56891e-05
-5.70474e-05
6.67301e-05
-0.000105852
0.000100035
-0.000169655
0.000137216
-0.000249018
0.000178505
-0.000342758
0.000222092
-0.000447859
0.000264592
-0.000559941
0.000302043
-0.000674061
0.000330853
-0.000785544
0.000348449
-0.000890566
0.000353519
-0.0009864
0.000345925
-0.00107133
0.000326385
-0.0011444
0.00029609
-0.00120511
0.000256434
-0.00125323
0.000208865
-0.00128862
0.000154752
-0.00131111
9.53344e-05
-0.00132053
3.18339e-05
-0.00131664
-3.45055e-05
-0.00129908
-0.000102317
-0.00126735
-0.000170077
-0.00122086
-0.000235902
-0.00115911
-0.000297469
-0.00108181
-0.000352024
-0.000989207
-0.000396446
-0.000882382
-0.000427398
-0.000763644
-0.000441708
-0.000636696
-0.000436979
-0.000506598
-0.000412257
-0.000379379
-0.000368616
-0.000261242
-0.000309448
-0.000157485
-0.000240212
-7.16332e-05
-0.000167506
-5.1245e-06
-9.76932e-05
4.25834e-05
-3.5708e-05
7.27353e-05
1.54093e-05
8.69349e-05
5.4114e-05
8.77103e-05
7.98135e-05
7.82705e-05
9.33673e-05
6.21279e-05
9.66946e-05
4.27428e-05
9.19237e-05
2.34095e-05
8.00928e-05
7.60359e-06
5.97816e-05
2.63987e-05
4.89948e-06
-2.97798e-05
8.88433e-06
-4.90132e-05
5.2974e-06
-3.75008e-05
-8.9115e-06
-7.26747e-06
-3.50868e-05
3.19686e-05
-7.43909e-05
7.49932e-05
-0.000128542
0.000120881
-0.000199289
0.000170782
-0.000287191
0.000225117
-0.000390726
0.000282039
-0.000506248
0.000337614
-0.000628697
0.000387042
-0.000752625
0.000425971
-0.000873125
0.000451354
-0.000986392
0.000461715
-0.00108986
0.000456991
-0.00118206
0.000438122
-0.00126227
0.000406597
-0.00133029
0.000364108
-0.00138625
0.000312394
-0.00143049
0.000253109
-0.00146342
0.000187672
-0.00148541
0.000117325
-0.00149682
4.32515e-05
-0.00149779
-3.35383e-05
-0.00148803
-0.000112079
-0.00146689
-0.000191212
-0.00143338
-0.000269418
-0.00138611
-0.000344736
-0.0013235
-0.00041463
-0.0012441
-0.000475855
-0.00114701
-0.000524487
-0.00103245
-0.000556263
-0.000902297
-0.000567135
-0.000760501
-0.000554054
-0.000613199
-0.000515918
-0.000468178
-0.000454469
-0.000333692
-0.000374698
-0.000216804
-0.000284394
-0.000121822
-0.000192676
-4.96987e-05
-0.000107831
1.20153e-06
-3.5491e-05
3.34807e-05
2.18348e-05
4.96901e-05
6.36041e-05
5.27888e-05
9.02685e-05
4.61913e-05
0.000103292
3.36004e-05
0.000104515
1.88768e-05
9.48164e-05
6.1151e-06
7.25434e-05
3.25137e-05
2.27661e-06
-3.20564e-05
-9.07901e-07
-4.58287e-05
-1.49932e-05
-2.34156e-05
-4.21717e-05
1.99111e-05
-8.36267e-05
7.34235e-05
-0.000140792
0.000132159
-0.000215368
0.000195458
-0.000308035
0.000263449
-0.000417258
0.00033434
-0.000539094
0.000403876
-0.000667997
0.000466517
-0.000798035
0.000517079
-0.000923937
0.000551873
-0.00104168
0.000569098
-0.00114861
0.000568645
-0.00124325
0.00055163
-0.00132502
0.00051989
-0.00139398
0.00047556
-0.00145071
0.000420834
-0.00149613
0.000357819
-0.00153136
0.000288336
-0.00155752
0.000213832
-0.0015757
0.000135503
-0.00158675
5.43043e-05
-0.00159112
-2.9168e-05
-0.00158878
-0.000114419
-0.00157924
-0.000200756
-0.00156135
-0.000287311
-0.00153325
-0.000372835
-0.00149248
-0.000455402
-0.00143618
-0.000532147
-0.00136146
-0.000599208
-0.00126592
-0.000651806
-0.0011485
-0.00068455
-0.00101042
-0.000692135
-0.000855856
-0.000670484
-0.000692212
-0.000618113
-0.000529536
-0.000537374
-0.000378847
-0.000435082
-0.000249625
-0.000321898
-0.000147343
-0.000210113
-7.24597e-05
-0.000110375
-2.16693e-05
-2.89556e-05
9.35004e-06
3.25847e-05
2.44561e-05
7.51624e-05
2.74329e-05
0.000100315
2.22376e-05
0.00010971
1.30504e-05
0.000104004
4.21421e-06
8.13795e-05
3.6728e-05
-1.91401e-06
-3.01424e-05
-1.46446e-05
-3.30982e-05
-4.13085e-05
3.24826e-06
-8.31972e-05
6.17997e-05
-0.000141323
0.000131549
-0.000217083
0.000207919
-0.000311263
0.000289638
-0.000422583
0.000374768
-0.000547151
0.000458908
-0.000679165
0.00053589
-0.000812238
0.00059959
-0.000940608
0.000645449
-0.00105983
0.000671093
-0.00116693
0.000676203
-0.00126029
0.000662007
-0.00133938
0.000630715
-0.00140451
0.000585021
-0.00145669
0.000527738
-0.00149742
0.000461567
-0.00152848
0.000388877
-0.00155165
0.000311512
-0.00156866
0.000230837
-0.00158098
0.000147827
-0.0015897
6.30233e-05
-0.00159549
-2.33752e-05
-0.00159866
-0.000111255
-0.00159897
-0.000200441
-0.0015955
-0.000290779
-0.00158655
-0.000381789
-0.00156958
-0.000472369
-0.00154117
-0.000560559
-0.00149709
-0.000643294
-0.00143275
-0.000716144
-0.00134402
-0.000773273
-0.00122833
-0.000807833
-0.00108591
-0.0008129
-0.000921077
-0.000782946
-0.000742697
-0.000715754
-0.000563519
-0.00061426
-0.000397914
-0.000487503
-0.000258273
-0.000349754
-0.000151366
-0.000217282
-7.68319e-05
-0.000103489
-2.92044e-05
-1.50428e-05
-2.05485e-06
4.80128e-05
9.98705e-06
8.82734e-05
1.17386e-05
0.000107958
7.79572e-06
0.000107946
2.60224e-06
8.6573e-05
3.93302e-05
-7.74034e-06
-2.24021e-05
-3.18876e-05
-8.95096e-06
-7.24794e-05
4.38401e-05
-0.000129775
0.000119095
-0.000204595
0.000206369
-0.000297672
0.000300996
-0.000408115
0.000400081
-0.000532419
0.000499071
-0.000664811
0.0005913
-0.00079856
0.000669639
-0.000927352
0.000728383
-0.00104617
0.000764267
-0.00115159
0.000776515
-0.00124173
0.000766339
-0.00131602
0.000736302
-0.00137503
0.000689723
-0.00142018
0.000630165
-0.00145349
0.000561054
-0.00147731
0.000485387
-0.00149395
0.000405513
-0.00150551
0.000323075
-0.00151383
0.00023915
-0.00152031
0.00015431
-0.00152597
6.86868e-05
-0.00153156
-1.77907e-05
-0.00153752
-0.000105294
-0.00154389
-0.000194066
-0.00155027
-0.000284406
-0.00155565
-0.000376406
-0.00155821
-0.000469805
-0.00155499
-0.000563783
-0.00154172
-0.000656563
-0.00151294
-0.000744927
-0.00146238
-0.000823835
-0.00138392
-0.000886293
-0.00127312
-0.0009237
-0.00112907
-0.000926992
-0.000956137
-0.000888687
-0.000764826
-0.000805571
-0.000571027
-0.000681302
-0.000392964
-0.000527816
-0.000246171
-0.000364075
-0.000138383
-0.000211278
-6.76908e-05
-8.5735e-05
-2.58851e-05
6.20715e-06
-4.30302e-06
6.66913e-05
3.87594e-06
9.97793e-05
4.2852e-06
0.000107537
1.7156e-06
8.91426e-05
4.10458e-05
-1.49303e-05
-7.47181e-06
-5.16554e-05
2.77742e-05
-0.000106473
9.8658e-05
-0.00017871
0.000191331
-0.000268717
0.000296376
-0.000375955
0.000408234
-0.000497558
0.000521684
-0.000628131
0.000629645
-0.000760822
0.000723991
-0.000888809
0.000797626
-0.00100643
0.000846003
-0.00110969
0.000867525
-0.00119633
0.000863155
-0.0012657
0.000835712
-0.00131854
0.000789142
-0.00135667
0.000727852
-0.00138262
0.000656119
-0.00139923
0.000577663
-0.00140923
0.000495384
-0.00141498
0.000411263
-0.00141839
0.000326485
-0.00142089
0.000241652
-0.00142347
0.000156894
-0.00142685
7.20601e-05
-0.00143155
-1.30861e-05
-0.00143797
-9.88716e-05
-0.00144635
-0.000185686
-0.00145683
-0.000273933
-0.00146925
-0.000363986
-0.00148288
-0.000456172
-0.00149606
-0.000550606
-0.00150577
-0.000646845
-0.00150731
-0.000743393
-0.00149408
-0.000837064
-0.00145808
-0.000922292
-0.00139105
-0.000990731
-0.00128644
-0.0010316
-0.00114197
-0.00103316
-0.000962096
-0.000985444
-0.000759346
-0.000884052
-0.000553296
-0.000733865
-0.000366416
-0.000550955
-0.000217183
-0.000360511
-0.000113327
-0.000189591
-5.0177e-05
-5.69431e-05
-1.63298e-05
3.2844e-05
-1.28429e-06
8.47338e-05
2.75116e-06
0.000103502
1.6491e-06
9.02446e-05
4.26949e-05
-2.29852e-05
1.55134e-05
-7.2439e-05
7.7228e-05
-0.000140698
0.000166917
-0.000226251
0.000276884
-0.000328574
0.0003987
-0.000445544
0.000525204
-0.000572495
0.000648635
-0.000702793
0.000759943
-0.000829282
0.00085048
-0.000945653
0.000913997
-0.00104724
0.000947594
-0.00113131
0.00095159
-0.00119698
0.000928829
-0.00124508
0.000883811
-0.00127776
0.000821816
-0.00129801
0.000748102
-0.00130914
0.00066725
-0.00131426
0.000582786
-0.00131595
0.000497073
-0.00131611
0.000411428
-0.00131605
0.000326417
-0.00131651
0.000242119
-0.00131794
0.000158325
-0.00132061
7.47315e-05
-0.00132474
-8.9656e-06
-0.00133053
-9.30811e-05
-0.00133829
-0.000177918
-0.00134846
-0.000263764
-0.00136146
-0.000350993
-0.00137753
-0.000440097
-0.00139649
-0.000531645
-0.00141721
-0.000626133
-0.00143695
-0.00072365
-0.00145079
-0.000823223
-0.00145123
-0.000921848
-0.00142853
-0.00101343
-0.00137206
-0.00108807
-0.00127294
-0.00113228
-0.00112751
-0.00113088
-0.000940617
-0.00107094
-0.000727452
-0.000947031
-0.000512008
-0.000766399
-0.000321269
-0.00055125
-0.000175837
-0.000335023
-8.16071e-05
-0.000151173
-2.96099e-05
-1.91532e-05
-5.3894e-06
6.05133e-05
2.49518e-06
9.56171e-05
2.18192e-06
9.05579e-05
4.48768e-05
-3.11632e-05
4.66766e-05
-9.24259e-05
0.000138491
-0.000172419
0.000246911
-0.000268673
0.000373138
-0.000379532
0.000509558
-0.000501312
0.000646984
-0.000628023
0.000775346
-0.000752489
0.000884409
-0.000867866
0.000965857
-0.000968767
0.0010149
-0.00105181
0.00103063
-0.00111572
0.0010155
-0.00116123
0.000974337
-0.00119067
0.000913251
-0.00120743
0.000838574
-0.00121525
0.000755925
-0.00121762
0.000669621
-0.00121733
0.000582495
-0.00121631
0.000496051
-0.0012157
0.000410818
-0.00121603
0.000326751
-0.00121744
0.000243529
-0.00121988
0.000160767
-0.00122328
7.81243e-05
-0.00122757
-4.67086e-06
-0.00123284
-8.7815e-05
-0.0012393
-0.000171451
-0.00124737
-0.000255693
-0.00125763
-0.000340738
-0.0012708
-0.000426924
-0.00128765
-0.000514797
-0.00130862
-0.000605162
-0.00133328
-0.000698988
-0.00135948
-0.000797025
-0.00138234
-0.000898986
-0.00139356
-0.00100222
-0.00138156
-0.00110007
-0.00133322
-0.00118061
-0.00123721
-0.00122689
-0.00108864
-0.00121952
-0.000893472
-0.0011422
-0.00067067
-0.000989201
-0.000449623
-0.000772298
-0.000261709
-0.000522937
-0.000127791
-0.00028509
-4.91488e-05
-9.77954e-05
-1.12711e-05
2.26356e-05
2.16094e-06
8.21851e-05
2.88176e-06
8.9837e-05
4.77586e-05
-3.85894e-05
8.5266e-05
-0.000109887
0.000209789
-0.00019915
0.000336174
-0.000302838
0.000476826
-0.000418096
0.000624816
-0.000539967
0.000768856
-0.000661711
0.00089709
-0.00077621
0.000998908
-0.000877382
0.00106703
-0.00096106
0.00109858
-0.00102535
0.00109493
-0.00107063
0.00106078
-0.0010992
0.0010029
-0.00111466
0.000928711
-0.00112113
0.000845053
-0.00112249
0.000757277
-0.00112175
0.000668887
-0.00112094
0.000581682
-0.0011211
0.000496212
-0.00112258
0.000412298
-0.00112529
0.000329464
-0.00112897
0.000247204
-0.00113331
0.00016511
-0.00113809
8.29005e-05
-0.00114316
4.01142e-07
-0.00114851
-8.24659e-05
-0.00115424
-0.000165722
-0.00116058
-0.00024935
-0.00116796
-0.00033336
-0.00117704
-0.000417843
-0.00118877
-0.00050307
-0.0012043
-0.00058963
-0.00122474
-0.000678549
-0.00125047
-0.000771291
-0.00128007
-0.000869391
-0.00130886
-0.000973422
-0.0013278
-0.00108113
-0.00132336
-0.00118505
-0.00127964
-0.00127061
-0.00118288
-0.00131628
-0.00102759
-0.00129749
-0.000822193
-0.00119459
-0.000591074
-0.00100342
-0.000369995
-0.000744017
-0.000193736
-0.000461349
-7.99894e-05
-0.000211542
-2.19448e-05
-3.54091e-05
2.50191e-07
5.99901e-05
3.27398e-06
8.68132e-05
5.10326e-05
-4.44961e-05
0.000129762
-0.000123393
0.000288685
-0.000218974
0.000431755
-0.000326565
0.000584416
-0.000442228
0.000740479
-0.000560153
0.00088678
-0.00067339
0.00101033
-0.000775347
0.00110086
-0.000861014
0.0011527
-0.000927647
0.00116521
-0.000974959
0.00114224
-0.0010049
0.00109072
-0.00102107
0.00101907
-0.00102784
0.000935477
-0.00102941
0.000846625
-0.00102913
0.000756998
-0.00102916
0.000668921
-0.00103056
0.000583078
-0.00103354
0.000499197
-0.00103788
0.000416635
-0.00104316
0.000334741
-0.00104897
0.000253019
-0.00105502
0.000171156
-0.00106109
8.8976e-05
-0.0010671
6.40254e-06
-0.00107299
-7.657e-05
-0.00107881
-0.000159908
-0.00108461
-0.000243547
-0.00109057
-0.0003274
-0.00109702
-0.000411391
-0.00110458
-0.000495509
-0.00111427
-0.000579944
-0.00112754
-0.000665281
-0.00114608
-0.000752749
-0.00117113
-0.00084434
-0.00120209
-0.000942465
-0.00123455
-0.00104867
-0.00125851
-0.00116109
-0.00125817
-0.00127095
-0.00121465
-0.00135981
-0.00111205
-0.00140009
-0.000945551
-0.00136109
-0.000728141
-0.00122083
-0.000491772
-0.000980386
-0.000279077
-0.000674044
-0.000125359
-0.000365259
-3.96761e-05
-0.000121092
-4.38975e-06
2.47037e-05
3.03273e-06
7.93907e-05
5.40653e-05
-4.83124e-05
0.000178074
-0.000131958
0.000372332
-0.00023071
0.000530506
-0.000338764
0.00069247
-0.00045134
0.000853055
-0.000562213
0.000997654
-0.000664677
0.00111279
-0.000752986
0.00118917
-0.000823398
0.00122311
-0.000874667
0.00121648
-0.000908034
0.0011756
-0.000926755
0.00110944
-0.000935228
0.00102754
-0.00093795
0.000938199
-0.000938619
0.000847294
-0.000939666
0.000758045
-0.000942247
0.000671502
-0.000946564
0.000587394
-0.000952284
0.000504917
-0.000958901
0.000423251
-0.000965953
0.000341792
-0.000973113
0.00026018
-0.000980194
0.000178238
-0.000987114
9.58956e-05
-0.000993851
1.31403e-05
-0.00100041
-7.00114e-05
-0.00100679
-0.000153526
-0.00101298
-0.000237355
-0.00101898
-0.000321409
-0.0010248
-0.000405567
-0.00103063
-0.000489677
-0.00103695
-0.000573628
-0.00104473
-0.000657499
-0.00105563
-0.000741843
-0.00107191
-0.000828069
-0.00109563
-0.000918745
-0.00112699
-0.00101731
-0.00116167
-0.00112641
-0.00118835
-0.00124427
-0.00118839
-0.00135977
-0.0011397
-0.00144878
-0.0010251
-0.00147569
-0.000842657
-0.00140327
-0.000613018
-0.00121002
-0.000377934
-0.000909128
-0.000185677
-0.000557516
-6.59166e-05
-0.000240853
-1.23342e-05
-2.88787e-05
2.04231e-06
6.50142e-05
5.61076e-05
-4.97085e-05
0.000227783
-0.000135093
0.000457716
-0.000233932
0.000629345
-0.000339365
0.000797904
-0.000446059
0.000959749
-0.00054777
0.00109936
-0.000638365
0.00120339
-0.000713146
0.00126395
-0.000769703
0.00127966
-0.000808208
0.00125498
-0.000831175
0.00119857
-0.000842712
0.00112098
-0.00084744
0.00103227
-0.000849422
0.000940181
-0.000851474
0.000849347
-0.000855008
0.000761579
-0.000860314
0.000676808
-0.000867034
0.000594114
-0.000874596
0.000512479
-0.00088249
0.000431146
-0.000890378
0.00034968
-0.000898094
0.000267896
-0.000905599
0.000185742
-0.000912919
0.000103216
-0.000920106
2.03272e-05
-0.000927202
-6.29153e-05
-0.000934221
-0.000146507
-0.000941137
-0.000230438
-0.000947878
-0.000314668
-0.000954332
-0.000399113
-0.000960387
-0.000483622
-0.000966032
-0.000567983
-0.000971561
-0.000651971
-0.000977871
-0.000735533
-0.000986777
-0.000819163
-0.00100103
-0.000904487
-0.00102355
-0.000994791
-0.00105522
-0.00109474
-0.00109139
-0.0012081
-0.0011186
-0.00133256
-0.00111457
-0.0014528
-0.00105413
-0.00153613
-0.00092064
-0.00153676
-0.000718626
-0.00141204
-0.000480265
-0.00114749
-0.000258247
-0.000779535
-0.000101487
-0.000397612
-2.37467e-05
-0.000106619
3.09491e-07
4.0958e-05
5.64171e-05
-4.85975e-05
0.00027638
-0.000132767
0.000541885
-0.000228875
0.000725453
-0.000329116
0.000898145
-0.000427886
0.00105852
-0.000519239
0.00119072
-0.000597832
0.00128198
-0.00066009
0.00132621
-0.000704867
0.00132444
-0.000733535
0.00128365
-0.00074949
0.00121453
-0.000757179
0.00112867
-0.000760932
0.00103602
-0.000764025
0.000943274
-0.000768286
0.000853608
-0.000774247
0.00076754
-0.000781621
0.000684183
-0.000789811
0.000602304
-0.000798259
0.000520927
-0.000806601
0.000439488
-0.000814679
0.000357758
-0.00082248
0.000275697
-0.00083007
0.000193331
-0.000837539
0.000110685
-0.000844973
2.7761e-05
-0.000852434
-5.54539e-05
-0.000859952
-0.00013899
-0.000867518
-0.000222872
-0.000875075
-0.000307112
-0.000882497
-0.00039169
-0.00088959
-0.00047653
-0.00089611
-0.000561462
-0.000901876
-0.000646206
-0.000906992
-0.000730416
-0.000912262
-0.000813894
-0.000919659
-0.00089709
-0.000932503
-0.000981947
-0.00095453
-0.00107271
-0.000987028
-0.0011756
-0.0010242
-0.00129539
-0.00104922
-0.00142778
-0.00103536
-0.00154999
-0.000955221
-0.0016169
-0.000796167
-0.00157109
-0.00057434
-0.00136932
-0.000337231
-0.00101664
-0.000146123
-0.000588721
-3.90032e-05
-0.000213739
-2.30554e-06
4.26033e-06
5.41115e-05
-4.50986e-05
0.000321479
-0.000125321
0.000622107
-0.000216269
0.000816401
-0.000309315
0.000991192
-0.000398824
0.00114803
-0.000479378
0.00127127
-0.00054653
0.00134913
-0.000597791
0.00137747
-0.000633102
0.00135975
-0.000654709
0.00130526
-0.000666452
0.00122627
-0.000672658
0.00113488
-0.000677021
0.00104039
-0.000681905
0.000948159
-0.000688262
0.000859965
-0.000696014
0.000775292
-0.000704602
0.000692771
-0.000713431
0.000611134
-0.000722096
0.000529592
-0.000730421
0.000447813
-0.000738401
0.000365739
-0.000746124
0.00028342
-0.000753705
0.000200912
-0.000761252
0.000118233
-0.000768852
3.53609e-05
-0.000776568
-4.77381e-05
-0.000784433
-0.000131124
-0.000792459
-0.000214846
-0.00080062
-0.000298951
-0.000808836
-0.000383474
-0.000816951
-0.000468415
-0.000824708
-0.000553705
-0.00083176
-0.000639154
-0.000837764
-0.000724412
-0.000842661
-0.000808997
-0.0008472
-0.000892551
-0.000853608
-0.000975539
-0.000865869
-0.00106045
-0.000888499
-0.00115297
-0.000922646
-0.00126124
-0.000960025
-0.0013904
-0.000978754
-0.00153127
-0.000947206
-0.00164844
-0.000838417
-0.00167988
-0.000649547
-0.00155819
-0.000414652
-0.00125154
-0.000197777
-0.000805596
-5.87646e-05
-0.000352752
-5.87495e-06
-4.86294e-05
4.82366e-05
-3.94845e-05
0.000360964
-0.000113354
0.000695977
-0.000197155
0.000900201
-0.000281555
0.00107559
-0.000361065
0.00122754
-0.000430932
0.00134114
-0.000487623
0.00140582
-0.000529609
0.00141946
-0.00055766
0.0013878
-0.000574533
0.00132213
-0.000584105
0.00123584
-0.000590248
0.00114102
-0.000595866
0.001046
-0.000602479
0.000954771
-0.000610388
0.000867873
-0.000619186
0.00078409
-0.000628279
0.000701863
-0.000637206
0.000620061
-0.000645748
0.000538134
-0.000653888
0.000455952
-0.000661719
0.00037357
-0.000669371
0.000291072
-0.000676967
0.000208509
-0.000684609
0.000125874
-0.000692368
4.31197e-05
-0.000700297
-3.98089e-05
-0.000708427
-0.000122994
-0.000716776
-0.000206498
-0.000725339
-0.000290388
-0.000734082
-0.000374731
-0.000742915
-0.000459582
-0.000751662
-0.000544958
-0.000760019
-0.000630797
-0.000767547
-0.000716884
-0.000773765
-0.000802778
-0.000778489
-0.000887828
-0.000782503
-0.000971525
-0.000788456
-0.0010545
-0.000801189
-0.00114024
-0.000825857
-0.00123657
-0.000862393
-0.00135386
-0.000897895
-0.00149576
-0.00090362
-0.00164272
-0.000844174
-0.00173933
-0.000698628
-0.00170373
-0.000482279
-0.00146789
-0.000252365
-0.00103551
-8.31782e-05
-0.000521938
-1.03789e-05
-0.000121429
3.78577e-05
-3.21268e-05
0.00039309
-9.76155e-05
0.000761466
-0.000172718
0.000975303
-0.000247502
0.00115038
-0.000316733
0.00129677
-0.000376385
0.00140079
-0.000423775
0.00145321
-0.000458155
0.00145384
-0.000480833
0.00141048
-0.000494726
0.00133602
-0.000503432
0.00124455
-0.000510181
0.00114777
-0.000517094
0.00105292
-0.000525014
0.000962692
-0.000533847
0.000876706
-0.00054308
0.000793323
-0.000552213
0.000710997
-0.000560962
0.000628809
-0.000569265
0.000546438
-0.000577208
0.000463895
-0.000584928
0.00038129
-0.000592561
0.000298705
-0.000600216
0.000216164
-0.000607978
0.000133636
-0.000615905
5.10469e-05
-0.000624042
-3.16724e-05
-0.000632411
-0.000114624
-0.000641028
-0.000197881
-0.000649897
-0.000281518
-0.000659006
-0.000365622
-0.000668313
-0.000450275
-0.00067772
-0.000535551
-0.000687032
-0.000621484
-0.000695902
-0.000708014
-0.000703802
-0.000794878
-0.000710129
-0.0008815
-0.00071463
-0.000967025
-0.000718292
-0.00105084
-0.000724483
-0.00113405
-0.000739103
-0.00122195
-0.000767424
-0.00132554
-0.0008062
-0.00145699
-0.000835044
-0.00161387
-0.000817456
-0.00175691
-0.000718694
-0.00180249
-0.000533496
-0.00165308
-0.000304599
-0.00126441
-0.000111232
-0.000715305
-1.58204e-05
-0.00021684
2.20372e-05
-2.34492e-05
0.000416539
-7.89091e-05
0.000816926
-0.000144157
0.00104055
-0.000208746
0.00121497
-0.000267734
0.00135576
-0.000317822
0.00145088
-0.000357073
0.00149246
-0.000385305
0.00148207
-0.000404083
0.00142926
-0.000416191
0.00134813
-0.000424738
0.0012531
-0.000432258
0.00115529
-0.000440188
0.00106085
-0.000448906
0.00097141
-0.000458124
0.000885924
-0.000467368
0.000802567
-0.000476286
0.000719915
-0.000484748
0.000637271
-0.000492802
0.000554492
-0.000500581
0.000471674
-0.000508231
0.000388939
-0.000515873
0.000306347
-0.000523602
0.000223893
-0.000531487
0.000141522
-0.000539581
5.91407e-05
-0.000547923
-2.33302e-05
-0.000556531
-0.000106017
-0.000565415
-0.000188997
-0.000574577
-0.000272356
-0.000584011
-0.000356189
-0.000593693
-0.000440593
-0.000603574
-0.00052567
-0.000613546
-0.000611512
-0.000623389
-0.000698171
-0.0006327
-0.000785567
-0.000640853
-0.000873346
-0.000647145
-0.000960733
-0.000651359
-0.00104662
-0.000654959
-0.00113045
-0.000662432
-0.00121448
-0.000680808
-0.00130717
-0.000714149
-0.00142365
-0.000752732
-0.00157529
-0.000765691
-0.00174396
-0.000711002
-0.00185718
-0.000564454
-0.00179963
-0.000349436
-0.00147943
-0.00014093
-0.000923811
-2.20974e-05
-0.000335673
-6.0153e-08
-1.38928e-05
0.000430432
-5.80336e-05
0.000861067
-0.000112597
0.00109511
-0.000166701
0.00126907
-0.000215674
0.00140473
-0.000256894
0.0014921
-0.000289044
0.00152461
-0.0003123
0.00150533
-0.000328234
0.00144519
-0.000339285
0.00135918
-0.000347962
0.00126177
-0.000356128
0.00116345
-0.000364691
0.00106941
-0.00037374
0.000980459
-0.000382947
0.000895131
-0.000391941
0.000811561
-0.000400517
0.00072849
-0.00040866
0.000645414
-0.000416475
0.000562308
-0.00042411
0.000479309
-0.000431698
0.000396527
-0.000439344
0.000313994
-0.000447128
0.000231677
-0.000455115
0.000149509
-0.000463358
6.73834e-05
-0.000471898
-1.47905e-05
-0.000480748
-9.71667e-05
-0.000489915
-0.000179829
-0.000499396
-0.000262874
-0.00050918
-0.000346405
-0.000519246
-0.000430527
-0.000529563
-0.000515352
-0.000540072
-0.000601004
-0.000550644
-0.000687599
-0.00056102
-0.000775191
-0.00057072
-0.000863646
-0.000579009
-0.000952444
-0.000585118
-0.00104051
-0.000589059
-0.00112651
-0.000593207
-0.00121033
-0.000603643
-0.00129673
-0.000628034
-0.00139925
-0.000666296
-0.00153703
-0.000697621
-0.00171263
-0.000679901
-0.0018749
-0.000574326
-0.00190521
-0.000383164
-0.00167059
-0.000169693
-0.00113728
-2.94208e-05
-0.000475945
-2.9481e-05
-3.87738e-06
0.00043431
-3.57534e-05
0.000892943
-7.90484e-05
0.00113841
-0.00012257
0.00131259
-0.00016184
0.001444
-0.000194836
0.00152509
-0.000220733
0.00155051
-0.00023988
0.00152447
-0.000253665
0.00145898
-0.000264039
0.00136956
-0.000272871
0.0012706
-0.000281436
0.00117202
-0.000290252
0.00107823
-0.000299265
0.000989472
-0.000308188
0.000904054
-0.000316778
0.000820152
-0.000324949
0.000736661
-0.000332757
0.000653222
-0.000340331
0.000569882
-0.000347811
0.000486789
-0.000355314
0.000404031
-0.000362931
0.000321611
-0.000370734
0.000239479
-0.000378785
0.000157561
-0.000387148
7.5746e-05
-0.000395867
-6.07077e-06
-0.00040496
-8.80741e-05
-0.000414429
-0.00017036
-0.000424262
-0.000253041
-0.000434443
-0.000336224
-0.000444947
-0.000420022
-0.000455747
-0.000504552
-0.000466801
-0.00058995
-0.000478032
-0.000676368
-0.000489279
-0.000763944
-0.000500219
-0.000852707
-0.000510266
-0.000942397
-0.00051857
-0.00103221
-0.000524395
-0.00112068
-0.00052833
-0.0012064
-0.000534291
-0.00129077
-0.000550214
-0.00138333
-0.000582454
-0.00150479
-0.000621518
-0.00167357
-0.000631431
-0.00186499
-0.000564836
-0.0019718
-0.000403896
-0.00183153
-0.000195079
-0.0013461
-3.78542e-05
-0.00063317
-6.73351e-05
6.05971e-06
0.00042825
-1.27374e-05
0.00091174
-4.44008e-05
0.00117007
-7.73435e-05
0.00134553
-0.00010723
0.00147389
-0.000132535
0.0015504
-0.000152808
0.00157078
-0.00016843
0.0015401
-0.000180469
0.00147102
-0.000190307
0.00137939
-0.000199187
0.00127948
-0.000207879
0.00118071
-0.000216628
0.00108697
-0.000225332
0.000998176
-0.000233791
0.000912513
-0.000241879
0.00082824
-0.000249599
0.000744381
-0.000257047
0.000660669
-0.000264353
0.000577188
-0.000271642
0.000494078
-0.000279017
0.000411406
-0.00028656
0.000329153
-0.000294336
0.000247255
-0.000302409
0.000165635
-0.000310856
8.41927e-05
-0.000319731
2.80409e-06
-0.000329059
-7.87454e-05
-0.000338842
-0.000160578
-0.000349057
-0.000242825
-0.000359682
-0.000325599
-0.000370689
-0.000409016
-0.000382046
-0.000493195
-0.000393718
-0.000578278
-0.000405649
-0.000664437
-0.000417735
-0.000751858
-0.00042976
-0.000840682
-0.000441305
-0.000930852
-0.000451653
-0.00102186
-0.000459869
-0.00111247
-0.000465472
-0.0012008
-0.000470224
-0.00128602
-0.000480322
-0.00137323
-0.00050483
-0.00148028
-0.000543996
-0.0016344
-0.000571982
-0.001837
-0.000539404
-0.00200438
-0.000411529
-0.0019594
-0.000215324
-0.0015423
-4.69729e-05
-0.00080152
-0.000114308