/*--------------------------------*- C++ -*----------------------------------*\
  =========                 |
  \\      /  F ield         | OpenFOAM: The Open Source CFD Toolbox
   \\    /   O peration     | Website:  https://openfoam.org
    \\  /    A nd           | Version:  7
     \\/     M anipulation  |
\*---------------------------------------------------------------------------*/
FoamFile
{
    version     2.0;
    format      ascii;
    class       volVectorField;
    location    "1950";
    object      U;
}
// * * * * * * * * * * * * * * * * * * * * * * * * * * * * * * * * * * * * * //

dimensions      [0 1 -1 0 0 0 0];

internalField   nonuniform List<vector> 
2500
(
(0.000207523 -0.000201137 0)
(0.00186617 -0.000571096 0)
(0.00447416 -0.000697776 0)
(0.00716306 -0.000600079 0)
(0.00922915 -0.000418982 0)
(0.0104505 -0.000264322 0)
(0.0109303 -0.000187986 0)
(0.0108813 -0.000185854 0)
(0.0104509 -0.000219839 0)
(0.0096346 -0.000245408 0)
(0.00828324 -0.000228672 0)
(0.00616452 -0.000150777 0)
(0.00302117 -2.68148e-06 0)
(-0.00139049 0.000220997 0)
(-0.00727508 0.000523396 0)
(-0.0147651 0.000908049 0)
(-0.0238829 0.00137496 0)
(-0.0344986 0.00191248 0)
(-0.0462942 0.00248743 0)
(-0.0587438 0.00303749 0)
(-0.0711188 0.00347288 0)
(-0.0825259 0.00368904 0)
(-0.091976 0.00358761 0)
(-0.0984863 0.00310339 0)
(-0.101192 0.00223061 0)
(-0.0994192 0.00102737 0)
(-0.0929 -0.000375426 0)
(-0.0817077 -0.00181222 0)
(-0.0663103 -0.00310952 0)
(-0.0475649 -0.00410043 0)
(-0.0266905 -0.00463996 0)
(-0.00516898 -0.00460539 0)
(0.0154737 -0.00393483 0)
(0.0337677 -0.00278343 0)
(0.0484061 -0.00137039 0)
(0.0584337 0.000126592 0)
(0.0634705 0.00149769 0)
(0.0637297 0.00253484 0)
(0.0600177 0.00311224 0)
(0.0535001 0.00322502 0)
(0.0454087 0.00298648 0)
(0.0368468 0.00254956 0)
(0.0286511 0.00204863 0)
(0.0213414 0.00157427 0)
(0.0151472 0.00117416 0)
(0.0100796 0.000863362 0)
(0.00602879 0.000631195 0)
(0.00290098 0.000435986 0)
(0.000795257 0.00019276 0)
(-8.20388e-05 -8.74404e-05 0)
(0.000566243 -0.00181828 0)
(0.00437473 -0.00431632 0)
(0.00958192 -0.00511678 0)
(0.0146038 -0.00444064 0)
(0.0181615 -0.00299832 0)
(0.0197685 -0.00145781 0)
(0.0194633 -0.000192479 0)
(0.017457 0.000765583 0)
(0.013835 0.00162516 0)
(0.00840842 0.00266496 0)
(0.000740465 0.00410228 0)
(-0.00972499 0.00604304 0)
(-0.023517 0.00849145 0)
(-0.0409979 0.0113804 0)
(-0.0622481 0.0145716 0)
(-0.0869601 0.0178393 0)
(-0.114376 0.0208631 0)
(-0.143303 0.0232508 0)
(-0.172217 0.0245937 0)
(-0.199438 0.0245346 0)
(-0.223311 0.0228265 0)
(-0.242355 0.0193698 0)
(-0.25537 0.0142287 0)
(-0.261501 0.00763569 0)
(-0.260273 -1.91893e-05 0)
(-0.251619 -0.00821971 0)
(-0.235731 -0.0163957 0)
(-0.213059 -0.0239931 0)
(-0.184372 -0.0304488 0)
(-0.150755 -0.0352292 0)
(-0.113619 -0.037872 0)
(-0.0746622 -0.0380336 0)
(-0.0357952 -0.0355697 0)
(0.0010487 -0.0306634 0)
(0.0340243 -0.0238134 0)
(0.0614549 -0.0157457 0)
(0.0820232 -0.00728145 0)
(0.0950085 0.00069683 0)
(0.100276 0.00734585 0)
(0.0984405 0.0120836 0)
(0.0909572 0.0147127 0)
(0.0796125 0.0154352 0)
(0.0662322 0.0147157 0)
(0.0524142 0.0131078 0)
(0.0393366 0.0111172 0)
(0.0276934 0.00911023 0)
(0.0177731 0.00724866 0)
(0.00968198 0.00543449 0)
(0.00372609 0.00334306 0)
(0.000329267 0.00091838 0)
(0.000785763 -0.00449523 0)
(0.00568856 -0.00969479 0)
(0.011718 -0.0109171 0)
(0.0169069 -0.00900575 0)
(0.0197646 -0.00542411 0)
(0.0197139 -0.00146994 0)
(0.0166727 0.00215235 0)
(0.0106387 0.00542273 0)
(0.00138681 0.00878024 0)
(-0.0116146 0.0127912 0)
(-0.0290785 0.0178418 0)
(-0.0516325 0.024009 0)
(-0.0795821 0.0310816 0)
(-0.112698 0.0385959 0)
(-0.150106 0.0458717 0)
(-0.190332 0.0520905 0)
(-0.231486 0.0564285 0)
(-0.271534 0.0581995 0)
(-0.308552 0.0569574 0)
(-0.340914 0.0525366 0)
(-0.367383 0.0450354 0)
(-0.387112 0.0347683 0)
(-0.399588 0.0222101 0)
(-0.404556 0.00794233 0)
(-0.401936 -0.00738765 0)
(-0.3917 -0.0230992 0)
(-0.373891 -0.0384779 0)
(-0.348781 -0.0527329 0)
(-0.316852 -0.0650318 0)
(-0.278869 -0.0745381 0)
(-0.235925 -0.0804761 0)
(-0.189458 -0.0822347 0)
(-0.141228 -0.0794847 0)
(-0.0932373 -0.0722827 0)
(-0.0475992 -0.0611764 0)
(-0.00630771 -0.0471711 0)
(0.0289143 -0.0315585 0)
(0.0567089 -0.0157858 0)
(0.0763848 -0.00114295 0)
(0.0876683 0.0111735 0)
(0.0908229 0.0202561 0)
(0.0871021 0.0257415 0)
(0.0782115 0.0278621 0)
(0.066041 0.0273075 0)
(0.0523908 0.0249767 0)
(0.0387217 0.0217248 0)
(0.026034 0.0181221 0)
(0.0149679 0.014239 0)
(0.00625643 0.00958286 0)
(0.000705199 0.00358657 0)
(0.00091769 -0.00772681 0)
(0.00606854 -0.0155924 0)
(0.0115467 -0.016538 0)
(0.0151648 -0.0124521 0)
(0.0154195 -0.00573419 0)
(0.011752 0.00169885 0)
(0.00393805 0.00894152 0)
(-0.00837121 0.0161022 0)
(-0.0258408 0.0239436 0)
(-0.0492862 0.0332167 0)
(-0.0793448 0.0442017 0)
(-0.116114 0.0565577 0)
(-0.158928 0.0694091 0)
(-0.206331 0.0815332 0)
(-0.256287 0.0916016 0)
(-0.306512 0.0984284 0)
(-0.354831 0.101165 0)
(-0.399435 0.0993893 0)
(-0.438995 0.0930907 0)
(-0.472632 0.0825679 0)
(-0.499816 0.0683173 0)
(-0.520251 0.0509416 0)
(-0.533751 0.031076 0)
(-0.540146 0.00934932 0)
(-0.539267 -0.0135843 0)
(-0.530936 -0.0369855 0)
(-0.515036 -0.0599986 0)
(-0.491532 -0.0816665 0)
(-0.460524 -0.100931 0)
(-0.422334 -0.116645 0)
(-0.377591 -0.127666 0)
(-0.327307 -0.132997 0)
(-0.272949 -0.131947 0)
(-0.216455 -0.124312 0)
(-0.160143 -0.110522 0)
(-0.106491 -0.0916904 0)
(-0.05785 -0.0695168 0)
(-0.0160885 -0.0460042 0)
(0.0175991 -0.0230667 0)
(0.0426236 -0.00244703 0)
(0.0589222 0.0146184 0)
(0.0667554 0.0272062 0)
(0.0672347 0.0349416 0)
(0.0619156 0.0381665 0)
(0.052588 0.0377852 0)
(0.0410433 0.0349333 0)
(0.0288323 0.0305681 0)
(0.0171901 0.0250317 0)
(0.00742145 0.0177399 0)
(0.000862121 0.00736577 0)
(0.000999776 -0.011018 0)
(0.00561123 -0.0208279 0)
(0.00922987 -0.020349 0)
(0.00967963 -0.012903 0)
(0.00562225 -0.00193728 0)
(-0.003461 0.0101251 0)
(-0.0180346 0.0223833 0)
(-0.038854 0.0352809 0)
(-0.0668531 0.0497577 0)
(-0.102684 0.0663395 0)
(-0.146245 0.0846542 0)
(-0.196462 0.103471 0)
(-0.251396 0.12106 0)
(-0.3086 0.135627 0)
(-0.365569 0.145686 0)
(-0.420122 0.150285 0)
(-0.470615 0.149057 0)
(-0.515964 0.142129 0)
(-0.555542 0.129956 0)
(-0.589014 0.113149 0)
(-0.616223 0.0923824 0)
(-0.637099 0.0683324 0)
(-0.65157 0.0416259 0)
(-0.659539 0.0128703 0)
(-0.660912 -0.0172668 0)
(-0.655576 -0.0480365 0)
(-0.643306 -0.0785941 0)
(-0.623808 -0.107948 0)
(-0.5968 -0.134907 0)
(-0.562062 -0.1581 0)
(-0.519543 -0.176058 0)
(-0.469526 -0.187325 0)
(-0.412826 -0.190645 0)
(-0.350924 -0.185239 0)
(-0.286026 -0.171091 0)
(-0.220966 -0.149135 0)
(-0.158912 -0.121261 0)
(-0.102865 -0.0900728 0)
(-0.0551124 -0.0584237 0)
(-0.0168427 -0.028831 0)
(0.011819 -0.00306981 0)
(0.0312524 0.0176582 0)
(0.0420113 0.0326832 0)
(0.0452998 0.0418512 0)
(0.0426377 0.045701 0)
(0.0357512 0.0453011 0)
(0.0264034 0.0417609 0)
(0.0162527 0.0356007 0)
(0.00711059 0.0261578 0)
(0.000796576 0.0113831 0)
(0.000995796 -0.0139232 0)
(0.0041625 -0.0242954 0)
(0.00458264 -0.02088 0)
(0.000398538 -0.00872854 0)
(-0.00946285 0.00765717 0)
(-0.0255639 0.0255951 0)
(-0.0486476 0.0444837 0)
(-0.0796943 0.0649958 0)
(-0.119418 0.0877885 0)
(-0.167637 0.112549 0)
(-0.223007 0.137822 0)
(-0.283224 0.161455 0)
(-0.345523 0.181227 0)
(-0.407211 0.195361 0)
(-0.466066 0.202787 0)
(-0.520502 0.203154 0)
(-0.569547 0.196692 0)
(-0.612695 0.183982 0)
(-0.649745 0.165756 0)
(-0.680692 0.142795 0)
(-0.705679 0.115872 0)
(-0.724906 0.0856889 0)
(-0.738566 0.0528631 0)
(-0.746859 0.0180113 0)
(-0.749925 -0.0182383 0)
(-0.747754 -0.0552843 0)
(-0.740119 -0.092451 0)
(-0.726592 -0.128847 0)
(-0.706582 -0.163337 0)
(-0.679318 -0.194541 0)
(-0.643985 -0.220811 0)
(-0.599943 -0.240274 0)
(-0.546957 -0.25103 0)
(-0.485476 -0.251481 0)
(-0.416908 -0.240711 0)
(-0.343792 -0.218875 0)
(-0.269704 -0.187485 0)
(-0.198832 -0.149397 0)
(-0.135227 -0.10838 0)
(-0.0818918 -0.068314 0)
(-0.0401154 -0.0323166 0)
(-0.00952195 -0.00225149 0)
(0.0110557 0.0211497 0)
(0.0228084 0.037606 0)
(0.0271645 0.0473334 0)
(0.0257876 0.0511138 0)
(0.0204682 0.0499416 0)
(0.0130799 0.0443216 0)
(0.00575008 0.0334786 0)
(0.000591115 0.0148946 0)
(0.000840012 -0.0158651 0)
(0.00148513 -0.024772 0)
(-0.00259306 -0.0166974 0)
(-0.0126821 0.00144638 0)
(-0.0295665 0.0244003 0)
(-0.0539207 0.049567 0)
(-0.0866442 0.0766378 0)
(-0.128497 0.106077 0)
(-0.179353 0.137636 0)
(-0.237786 0.169771 0)
(-0.30127 0.2 0)
(-0.366771 0.225691 0)
(-0.431376 0.244729 0)
(-0.492722 0.255851 0)
(-0.549149 0.258661 0)
(-0.59966 0.253443 0)
(-0.643783 0.240905 0)
(-0.681415 0.221952 0)
(-0.712728 0.197548 0)
(-0.738118 0.168656 0)
(-0.758127 0.136156 0)
(-0.773318 0.100771 0)
(-0.784258 0.0631253 0)
(-0.791466 0.0237845 0)
(-0.795267 -0.0168099 0)
(-0.795771 -0.058296 0)
(-0.79289 -0.100229 0)
(-0.786209 -0.141978 0)
(-0.77498 -0.182708 0)
(-0.758096 -0.221261 0)
(-0.734201 -0.256032 0)
(-0.701807 -0.284974 0)
(-0.659499 -0.305725 0)
(-0.606301 -0.315856 0)
(-0.542144 -0.313254 0)
(-0.468298 -0.296694 0)
(-0.387664 -0.266434 0)
(-0.304733 -0.224621 0)
(-0.225043 -0.175271 0)
(-0.154062 -0.123617 0)
(-0.0957909 -0.0748522 0)
(-0.0516885 -0.0327693 0)
(-0.0207403 0.000878909 0)
(-0.000737731 0.0259564 0)
(0.0103144 0.0427953 0)
(0.0143188 0.0520176 0)
(0.0132111 0.0544205 0)
(0.0090152 0.0503568 0)
(0.00400165 0.0389291 0)
(0.000362335 0.0174932 0)
(0.00046531 -0.0160987 0)
(-0.00257152 -0.0209773 0)
(-0.0122811 -0.00662303 0)
(-0.0292278 0.0186522 0)
(-0.0539423 0.0492643 0)
(-0.087176 0.0828685 0)
(-0.129654 0.119113 0)
(-0.181383 0.157651 0)
(-0.241043 0.196932 0)
(-0.306045 0.234245 0)
(-0.373154 0.266542 0)
(-0.439201 0.291284 0)
(-0.501582 0.306908 0)
(-0.558453 0.312876 0)
(-0.608698 0.309477 0)
(-0.65181 0.297546 0)
(-0.687767 0.278212 0)
(-0.716918 0.252707 0)
(-0.739917 0.222269 0)
(-0.757623 0.188041 0)
(-0.770948 0.150962 0)
(-0.780776 0.111753 0)
(-0.787932 0.0709828 0)
(-0.793072 0.0290362 0)
(-0.796614 -0.0138897 0)
(-0.798815 -0.0576366 0)
(-0.799752 -0.102026 0)
(-0.799123 -0.146814 0)
(-0.796274 -0.191579 0)
(-0.790157 -0.235538 0)
(-0.779291 -0.27742 0)
(-0.761731 -0.315397 0)
(-0.735194 -0.347043 0)
(-0.697388 -0.369399 0)
(-0.646479 -0.379286 0)
(-0.581717 -0.373876 0)
(-0.504114 -0.351464 0)
(-0.416955 -0.312295 0)
(-0.325817 -0.259198 0)
(-0.237855 -0.197601 0)
(-0.160265 -0.134586 0)
(-0.0982277 -0.0769914 0)
(-0.053305 -0.0293643 0)
(-0.0235716 0.0068783 0)
(-0.00555451 0.0324556 0)
(0.00361914 0.0482986 0)
(0.00646161 0.0552518 0)
(0.00529134 0.0535906 0)
(0.00248839 0.0423785 0)
(0.000209319 0.0191579 0)
(-0.000171515 -0.01379 0)
(-0.007963 -0.0118373 0)
(-0.0241165 0.0101932 0)
(-0.0484305 0.0434949 0)
(-0.0812228 0.0826286 0)
(-0.12313 0.125376 0)
(-0.174291 0.170809 0)
(-0.233633 0.217331 0)
(-0.298693 0.262092 0)
(-0.366137 0.301639 0)
(-0.432542 0.332911 0)
(-0.495002 0.353893 0)
(-0.551402 0.363782 0)
(-0.600439 0.362798 0)
(-0.641532 0.351883 0)
(-0.674714 0.332416 0)
(-0.700511 0.305969 0)
(-0.719825 0.274123 0)
(-0.733792 0.238345 0)
(-0.743613 0.199853 0)
(-0.750403 0.159548 0)
(-0.755159 0.118066 0)
(-0.758705 0.0758054 0)
(-0.761618 0.0329181 0)
(-0.764328 -0.0105772 0)
(-0.76717 -0.0546872 0)
(-0.770279 -0.0994906 0)
(-0.773548 -0.145069 0)
(-0.776652 -0.191356 0)
(-0.778927 -0.23802 0)
(-0.779206 -0.284356 0)
(-0.775685 -0.329107 0)
(-0.76591 -0.370254 0)
(-0.74687 -0.4049 0)
(-0.715314 -0.429372 0)
(-0.668384 -0.439578 0)
(-0.604506 -0.43172 0)
(-0.524364 -0.403376 0)
(-0.431641 -0.354704 0)
(-0.33316 -0.289362 0)
(-0.237969 -0.214558 0)
(-0.155212 -0.139701 0)
(-0.0912401 -0.0736109 0)
(-0.0473957 -0.0215237 0)
(-0.0204242 0.0158127 0)
(-0.00546845 0.0401205 0)
(0.00120743 0.0527838 0)
(0.00267549 0.0543909 0)
(0.00160658 0.0442044 0)
(0.000183976 0.0201693 0)
(-0.00107214 -0.00817058 0)
(-0.0144134 0.00339716 0)
(-0.0373626 0.0341311 0)
(-0.0690361 0.0760321 0)
(-0.10949 0.124118 0)
(-0.158979 0.17593 0)
(-0.21676 0.229496 0)
(-0.280677 0.281858 0)
(-0.347455 0.329204 0)
(-0.413484 0.367865 0)
(-0.475533 0.395209 0)
(-0.531158 0.409989 0)
(-0.578811 0.412238 0)
(-0.617792 0.402953 0)
(-0.648157 0.383758 0)
(-0.670593 0.3566 0)
(-0.686243 0.323474 0)
(-0.696505 0.286219 0)
(-0.702816 0.246363 0)
(-0.706472 0.205029 0)
(-0.708544 0.162948 0)
(-0.709873 0.120555 0)
(-0.711044 0.078015 0)
(-0.712438 0.0353027 0)
(-0.714373 -0.00767272 0)
(-0.71712 -0.0510471 0)
(-0.720799 -0.0950313 0)
(-0.725508 -0.13984 0)
(-0.731279 -0.18563 0)
(-0.737934 -0.232465 0)
(-0.744914 -0.28022 0)
(-0.751102 -0.328359 0)
(-0.754608 -0.375663 0)
(-0.752596 -0.419962 0)
(-0.741323 -0.457911 0)
(-0.716529 -0.484986 0)
(-0.674225 -0.495915 0)
(-0.611875 -0.485662 0)
(-0.529759 -0.450893 0)
(-0.432079 -0.391672 0)
(-0.327163 -0.31279 0)
(-0.226232 -0.223835 0)
(-0.140476 -0.137167 0)
(-0.0771124 -0.063809 0)
(-0.0365875 -0.00930043 0)
(-0.0137784 0.026812 0)
(-0.00262455 0.0471545 0)
(0.00130459 0.053255 0)
(0.00144737 0.0450225 0)
(0.000288237 0.0209472 0)
(-0.00217929 0.00130673 0)
(-0.0214245 0.0250145 0)
(-0.0510177 0.0650526 0)
(-0.0894955 0.115732 0)
(-0.136544 0.1726 0)
(-0.191808 0.232547 0)
(-0.253589 0.292321 0)
(-0.318883 0.347799 0)
(-0.38402 0.394675 0)
(-0.445482 0.429529 0)
(-0.500463 0.450453 0)
(-0.547104 0.457102 0)
(-0.584523 0.450412 0)
(-0.612747 0.43221 0)
(-0.632574 0.404822 0)
(-0.645365 0.370711 0)
(-0.652771 0.332153 0)
(-0.656452 0.291023 0)
(-0.65786 0.248682 0)
(-0.658117 0.205982 0)
(-0.658012 0.163369 0)
(-0.658047 0.121004 0)
(-0.658486 0.0788493 0)
(-0.659466 0.0367745 0)
(-0.661113 -0.00537296 0)
(-0.663564 -0.0477716 0)
(-0.666909 -0.0906117 0)
(-0.671342 -0.134084 0)
(-0.677091 -0.178411 0)
(-0.68435 -0.223855 0)
(-0.693178 -0.270658 0)
(-0.703316 -0.31891 0)
(-0.713883 -0.368317 0)
(-0.723032 -0.417844 0)
(-0.727671 -0.465239 0)
(-0.723394 -0.506648 0)
(-0.704862 -0.536534 0)
(-0.666811 -0.548179 0)
(-0.605662 -0.534971 0)
(-0.521364 -0.492482 0)
(-0.418877 -0.420876 0)
(-0.308426 -0.326716 0)
(-0.20374 -0.222881 0)
(-0.117975 -0.125391 0)
(-0.0584528 -0.0473671 0)
(-0.0236418 0.00625037 0)
(-0.0061876 0.0377669 0)
(0.000680457 0.0503953 0)
(0.00181038 0.0453588 0)
(0.000485844 0.021875 0)
(-0.0033577 0.0148757 0)
(-0.0283494 0.0528135 0)
(-0.0639624 0.102333 0)
(-0.1082 0.161512 0)
(-0.160269 0.226354 0)
(-0.219098 0.292802 0)
(-0.282164 0.356345 0)
(-0.345953 0.41206 0)
(-0.406762 0.455611 0)
(-0.461424 0.484178 0)
(-0.507709 0.496773 0)
(-0.544463 0.494067 0)
(-0.571587 0.477972 0)
(-0.589912 0.451163 0)
(-0.600958 0.416596 0)
(-0.606603 0.37706 0)
(-0.608726 0.33485 0)
(-0.608935 0.291607 0)
(-0.608411 0.248322 0)
(-0.607901 0.205458 0)
(-0.607797 0.163129 0)
(-0.60824 0.121254 0)
(-0.609219 0.0796632 0)
(-0.610677 0.0381829 0)
(-0.612572 -0.00334482 0)
(-0.614941 -0.0450544 0)
(-0.617839 -0.0870489 0)
(-0.621418 -0.129429 0)
(-0.625923 -0.172354 0)
(-0.631689 -0.216059 0)
(-0.639114 -0.260879 0)
(-0.648553 -0.307228 0)
(-0.660095 -0.355488 0)
(-0.673211 -0.405715 0)
(-0.686264 -0.457134 0)
(-0.696007 -0.50748 0)
(-0.697369 -0.552338 0)
(-0.683863 -0.584901 0)
(-0.648867 -0.596596 0)
(-0.587731 -0.578907 0)
(-0.500277 -0.526295 0)
(-0.392722 -0.439523 0)
(-0.277813 -0.328018 0)
(-0.172118 -0.209257 0)
(-0.090293 -0.103555 0)
(-0.0383194 -0.0252625 0)
(-0.0113354 0.0229159 0)
(-0.000153463 0.0453723 0)
(0.00229759 0.0453578 0)
(0.000720692 0.0231577 0)
(-0.00444343 0.0323843 0)
(-0.0345357 0.0861299 0)
(-0.0751396 0.144916 0)
(-0.123722 0.211865 0)
(-0.178948 0.283343 0)
(-0.239064 0.354219 0)
(-0.300967 0.418936 0)
(-0.360962 0.472188 0)
(-0.415587 0.510001 0)
(-0.462202 0.530411 0)
(-0.499278 0.533509 0)
(-0.526462 0.521074 0)
(-0.544489 0.496021 0)
(-0.55494 0.461791 0)
(-0.559865 0.42175 0)
(-0.56135 0.378719 0)
(-0.56117 0.334708 0)
(-0.56059 0.290899 0)
(-0.560347 0.247802 0)
(-0.560751 0.205479 0)
(-0.561831 0.163772 0)
(-0.563473 0.122448 0)
(-0.565519 0.0812941 0)
(-0.567816 0.0401459 0)
(-0.570259 -0.0011121 0)
(-0.572846 -0.0425435 0)
(-0.575601 -0.0841751 0)
(-0.578584 -0.126023 0)
(-0.581954 -0.168131 0)
(-0.585976 -0.210606 0)
(-0.591052 -0.253671 0)
(-0.597724 -0.297726 0)
(-0.606607 -0.34337 0)
(-0.61818 -0.391305 0)
(-0.632343 -0.442016 0)
(-0.647747 -0.495103 0)
(-0.661061 -0.548287 0)
(-0.666541 -0.596418 0)
(-0.656422 -0.631044 0)
(-0.6226 -0.641271 0)
(-0.559493 -0.616344 0)
(-0.467311 -0.549817 0)
(-0.354353 -0.444132 0)
(-0.236694 -0.31337 0)
(-0.133899 -0.181252 0)
(-0.0609064 -0.072414 0)
(-0.0200548 -0.00019251 0)
(-0.00226723 0.0369494 0)
(0.00247051 0.0446341 0)
(0.000940132 0.024756 0)
(-0.00528814 0.0532712 0)
(-0.0394223 0.123906 0)
(-0.0836912 0.191429 0)
(-0.134994 0.265057 0)
(-0.191459 0.34149 0)
(-0.250784 0.414572 0)
(-0.309555 0.47801 0)
(-0.364175 0.526507 0)
(-0.411612 0.556762 0)
(-0.449878 0.567869 0)
(-0.47822 0.561116 0)
(-0.497116 0.539428 0)
(-0.508062 0.506646 0)
(-0.513183 0.466753 0)
(-0.514742 0.423209 0)
(-0.514695 0.378535 0)
(-0.514431 0.334213 0)
(-0.514719 0.290859 0)
(-0.51583 0.24851 0)
(-0.517713 0.206927 0)
(-0.520175 0.165799 0)
(-0.523 0.124855 0)
(-0.526005 0.0839074 0)
(-0.52905 0.0428407 0)
(-0.532047 0.00159564 0)
(-0.535 -0.039841 0)
(-0.537928 -0.0814538 0)
(-0.540822 -0.123215 0)
(-0.543739 -0.165091 0)
(-0.546792 -0.207068 0)
(-0.550204 -0.249201 0)
(-0.55437 -0.291686 0)
(-0.559913 -0.334965 0)
(-0.567666 -0.379812 0)
(-0.578481 -0.427291 0)
(-0.592728 -0.47838 0)
(-0.609412 -0.533095 0)
(-0.625094 -0.589094 0)
(-0.633193 -0.640191 0)
(-0.624487 -0.675705 0)
(-0.589373 -0.681765 0)
(-0.521697 -0.645181 0)
(-0.422936 -0.55939 0)
(-0.304705 -0.430485 0)
(-0.187311 -0.27982 0)
(-0.0928441 -0.138943 0)
(-0.0339611 -0.0351769 0)
(-0.00650161 0.0231805 0)
(0.00201338 0.0423179 0)
(0.00111667 0.0264197 0)
(-0.00577048 0.0766307 0)
(-0.0425969 0.164808 0)
(-0.0890433 0.240325 0)
(-0.141402 0.319317 0)
(-0.197322 0.398896 0)
(-0.254141 0.47206 0)
(-0.308381 0.532118 0)
(-0.356747 0.574118 0)
(-0.396763 0.595673 0)
(-0.427157 0.597079 0)
(-0.447965 0.580883 0)
(-0.460414 0.5511 0)
(-0.466562 0.512288 0)
(-0.468778 0.468654 0)
(-0.469205 0.423404 0)
(-0.469403 0.378496 0)
(-0.470238 0.334767 0)
(-0.47199 0.292288 0)
(-0.474569 0.250751 0)
(-0.477724 0.209757 0)
(-0.481195 0.168973 0)
(-0.484785 0.128175 0)
(-0.488369 0.0872407 0)
(-0.491871 0.0461131 0)
(-0.495255 0.00477493 0)
(-0.498552 -0.0367643 0)
(-0.501791 -0.0784799 0)
(-0.50494 -0.120342 0)
(-0.50799 -0.162298 0)
(-0.510939 -0.204282 0)
(-0.513822 -0.246232 0)
(-0.516782 -0.288141 0)
(-0.520155 -0.33016 0)
(-0.524588 -0.372757 0)
(-0.531094 -0.416877 0)
(-0.540895 -0.463969 0)
(-0.554836 -0.515581 0)
(-0.572232 -0.572179 0)
(-0.5894 -0.631149 0)
(-0.598668 -0.684673 0)
(-0.589084 -0.718963 0)
(-0.549612 -0.716474 0)
(-0.474295 -0.661774 0)
(-0.367362 -0.549942 0)
(-0.245348 -0.394031 0)
(-0.133353 -0.226072 0)
(-0.0540419 -0.0858239 0)
(-0.0133489 0.00164735 0)
(0.000774255 0.0372284 0)
(0.00125412 0.0277899 0)
(-0.00581485 0.101329 0)
(-0.0438268 0.207356 0)
(-0.090932 0.290029 0)
(-0.142775 0.372994 0)
(-0.19663 0.453978 0)
(-0.249661 0.525385 0)
(-0.298533 0.580441 0)
(-0.340381 0.614812 0)
(-0.373353 0.627197 0)
(-0.396892 0.619184 0)
(-0.411749 0.594546 0)
(-0.419719 0.558221 0)
(-0.423149 0.515189 0)
(-0.424341 0.46953 0)
(-0.425069 0.423911 0)
(-0.426371 0.37959 0)
(-0.428607 0.336778 0)
(-0.431693 0.295139 0)
(-0.435346 0.254181 0)
(-0.43927 0.213488 0)
(-0.443248 0.172792 0)
(-0.447165 0.131958 0)
(-0.450977 0.090933 0)
(-0.454675 0.0497051 0)
(-0.458263 0.00827735 0)
(-0.461802 -0.0333396 0)
(-0.465332 -0.0751306 0)
(-0.468826 -0.117087 0)
(-0.472256 -0.159173 0)
(-0.475573 -0.20133 0)
(-0.478715 -0.243468 0)
(-0.481634 -0.285478 0)
(-0.484369 -0.327289 0)
(-0.487177 -0.36899 0)
(-0.490705 -0.411055 0)
(-0.496123 -0.454623 0)
(-0.505011 -0.501609 0)
(-0.518676 -0.554209 0)
(-0.536652 -0.613269 0)
(-0.554691 -0.675453 0)
(-0.563533 -0.730341 0)
(-0.5502 -0.759804 0)
(-0.502656 -0.741984 0)
(-0.416585 -0.660328 0)
(-0.301097 -0.515059 0)
(-0.179339 -0.331228 0)
(-0.0805227 -0.154852 0)
(-0.0231573 -0.0304508 0)
(-0.00128039 0.0280334 0)
(0.00137194 0.0284895 0)
(-0.00539798 0.126125 0)
(-0.0430558 0.250042 0)
(-0.0893761 0.339049 0)
(-0.139323 0.424664 0)
(-0.189912 0.50553 0)
(-0.238307 0.573736 0)
(-0.281456 0.622703 0)
(-0.317002 0.648912 0)
(-0.343716 0.652261 0)
(-0.361691 0.635631 0)
(-0.372237 0.603904 0)
(-0.377484 0.562689 0)
(-0.379788 0.517055 0)
(-0.381146 0.470657 0)
(-0.382841 0.425458 0)
(-0.385405 0.382013 0)
(-0.388819 0.340043 0)
(-0.392801 0.298971 0)
(-0.397028 0.258275 0)
(-0.401261 0.217617 0)
(-0.405376 0.176832 0)
(-0.409344 0.13587 0)
(-0.413189 0.09473 0)
(-0.416941 0.053423 0)
(-0.420624 0.0119535 0)
(-0.424311 -0.0296778 0)
(-0.428052 -0.0714701 0)
(-0.431832 -0.113438 0)
(-0.435627 -0.155576 0)
(-0.439395 -0.197858 0)
(-0.443055 -0.240221 0)
(-0.446491 -0.282558 0)
(-0.449579 -0.324712 0)
(-0.452262 -0.366538 0)
(-0.45471 -0.408055 0)
(-0.457561 -0.449764 0)
(-0.462157 -0.493053 0)
(-0.47047 -0.540419 0)
(-0.484233 -0.594808 0)
(-0.50293 -0.657249 0)
(-0.521185 -0.722801 0)
(-0.527495 -0.776827 0)
(-0.506722 -0.795308 0)
(-0.446898 -0.752107 0)
(-0.347742 -0.632569 0)
(-0.225998 -0.448198 0)
(-0.11235 -0.24257 0)
(-0.0364041 -0.0761128 0)
(-0.00422427 0.0132312 0)
(0.00146156 0.0281087 0)
(-0.00454449 0.149776 0)
(-0.0403764 0.29143 0)
(-0.0846178 0.386064 0)
(-0.131528 0.473183 0)
(-0.17798 0.552716 0)
(-0.221268 0.616726 0)
(-0.258717 0.659042 0)
(-0.288495 0.677093 0)
(-0.309942 0.672009 0)
(-0.323678 0.647892 0)
(-0.331373 0.61054 0)
(-0.335248 0.56594 0)
(-0.337449 0.518957 0)
(-0.33954 0.472623 0)
(-0.342315 0.428158 0)
(-0.345912 0.385526 0)
(-0.350093 0.344125 0)
(-0.354524 0.303303 0)
(-0.358939 0.262607 0)
(-0.363197 0.221816 0)
(-0.367266 0.180863 0)
(-0.371181 0.139758 0)
(-0.375001 0.098527 0)
(-0.378771 0.0571831 0)
(-0.382515 0.0157216 0)
(-0.386302 -0.0258703 0)
(-0.39019 -0.0676034 0)
(-0.394169 -0.109511 0)
(-0.398226 -0.151609 0)
(-0.402338 -0.193904 0)
(-0.406449 -0.23638 0)
(-0.410457 -0.278974 0)
(-0.414208 -0.321558 0)
(-0.41751 -0.363928 0)
(-0.420215 -0.405859 0)
(-0.422419 -0.447303 0)
(-0.424787 -0.488821 0)
(-0.428891 -0.532185 0)
(-0.437135 -0.580696 0)
(-0.451583 -0.638128 0)
(-0.471211 -0.70513 0)
(-0.488626 -0.773512 0)
(-0.489302 -0.822067 0)
(-0.456345 -0.819451 0)
(-0.38014 -0.737037 0)
(-0.268004 -0.568484 0)
(-0.146955 -0.346024 0)
(-0.053406 -0.137554 0)
(-0.00822325 -0.00881197 0)
(0.00147499 0.0261913 0)
(-0.00331697 0.171142 0)
(-0.0359904 0.330221 0)
(-0.0770494 0.429965 0)
(-0.120036 0.51769 0)
(-0.161776 0.595031 0)
(-0.199787 0.654296 0)
(-0.231817 0.689873 0)
(-0.256525 0.7002 0)
(-0.27373 0.687604 0)
(-0.284415 0.657269 0)
(-0.290406 0.615672 0)
(-0.293812 0.568908 0)
(-0.296434 0.521417 0)
(-0.299383 0.47553 0)
(-0.303048 0.431796 0)
(-0.307317 0.389743 0)
(-0.311876 0.348611 0)
(-0.316432 0.307786 0)
(-0.320816 0.266931 0)
(-0.32498 0.225939 0)
(-0.328956 0.184814 0)
(-0.332812 0.143597 0)
(-0.33662 0.102317 0)
(-0.340422 0.0609782 0)
(-0.344232 0.0195616 0)
(-0.348106 -0.0219575 0)
(-0.352109 -0.0635977 0)
(-0.356235 -0.105404 0)
(-0.36047 -0.147405 0)
(-0.364808 -0.189631 0)
(-0.369221 -0.232097 0)
(-0.373647 -0.274795 0)
(-0.377971 -0.317663 0)
(-0.382004 -0.360551 0)
(-0.385496 -0.403196 0)
(-0.388223 -0.445283 0)
(-0.390233 -0.486712 0)
(-0.392279 -0.528211 0)
(-0.396272 -0.572183 0)
(-0.405126 -0.623034 0)
(-0.421003 -0.685281 0)
(-0.441511 -0.757933 0)
(-0.455971 -0.826737 0)
(-0.446363 -0.860882 0)
(-0.395732 -0.821533 0)
(-0.300803 -0.683233 0)
(-0.180792 -0.459539 0)
(-0.073615 -0.21513 0)
(-0.0135242 -0.0398824 0)
(0.0013906 0.0222564 0)
(-0.00180432 0.18924 0)
(-0.0301691 0.365301 0)
(-0.0671445 0.469866 0)
(-0.105556 0.557588 0)
(-0.142255 0.632237 0)
(-0.175035 0.686613 0)
(-0.202068 0.715757 0)
(-0.222446 0.719106 0)
(-0.236342 0.700087 0)
(-0.244935 0.664786 0)
(-0.250026 0.620125 0)
(-0.253473 0.572085 0)
(-0.256679 0.524568 0)
(-0.260359 0.479221 0)
(-0.264617 0.43605 0)
(-0.269224 0.39431 0)
(-0.273879 0.353206 0)
(-0.278375 0.312223 0)
(-0.282636 0.271147 0)
(-0.286682 0.229955 0)
(-0.290578 0.188695 0)
(-0.294403 0.147412 0)
(-0.298224 0.106125 0)
(-0.302076 0.0648251 0)
(-0.305961 0.0234795 0)
(-0.309921 -0.0179468 0)
(-0.31403 -0.0594762 0)
(-0.318285 -0.101163 0)
(-0.322663 -0.143043 0)
(-0.327166 -0.185157 0)
(-0.331781 -0.227539 0)
(-0.33648 -0.270218 0)
(-0.341194 -0.313193 0)
(-0.345794 -0.356398 0)
(-0.350061 -0.399648 0)
(-0.353688 -0.442606 0)
(-0.356386 -0.484855 0)
(-0.358205 -0.526291 0)
(-0.360108 -0.568011 0)
(-0.364514 -0.613462 0)
(-0.374873 -0.668525 0)
(-0.392871 -0.737879 0)
(-0.413324 -0.816203 0)
(-0.420872 -0.878821 0)
(-0.394636 -0.882609 0)
(-0.321504 -0.78494 0)
(-0.210292 -0.576051 0)
(-0.0954317 -0.306798 0)
(-0.0203517 -0.0816576 0)
(0.00125075 0.01582 0)
(-0.000110706 0.203295 0)
(-0.023219 0.395743 0)
(-0.0554008 0.505094 0)
(-0.0887892 0.592499 0)
(-0.120305 0.664287 0)
(-0.148031 0.713974 0)
(-0.170541 0.737291 0)
(-0.187279 0.734605 0)
(-0.198641 0.710303 0)
(-0.205847 0.671174 0)
(-0.210536 0.624382 0)
(-0.214237 0.575652 0)
(-0.217977 0.52832 0)
(-0.222159 0.483438 0)
(-0.226723 0.440616 0)
(-0.231413 0.398966 0)
(-0.235993 0.357738 0)
(-0.240344 0.316531 0)
(-0.24446 0.275234 0)
(-0.248399 0.233881 0)
(-0.252239 0.192533 0)
(-0.256051 0.151228 0)
(-0.259894 0.109969 0)
(-0.263801 0.068734 0)
(-0.267763 0.0274803 0)
(-0.271805 -0.0138364 0)
(-0.276017 -0.0552402 0)
(-0.280402 -0.0967955 0)
(-0.284921 -0.138542 0)
(-0.289577 -0.180525 0)
(-0.294365 -0.222791 0)
(-0.299269 -0.265385 0)
(-0.304253 -0.308345 0)
(-0.309245 -0.351674 0)
(-0.314097 -0.395292 0)
(-0.318551 -0.438961 0)
(-0.322241 -0.482234 0)
(-0.324839 -0.52459 0)
(-0.326481 -0.566045 0)
(-0.328527 -0.608454 0)
(-0.334118 -0.656954 0)
(-0.347071 -0.719082 0)
(-0.367386 -0.797772 0)
(-0.385 -0.878364 0)
(-0.379113 -0.920264 0)
(-0.329171 -0.868492 0)
(-0.232699 -0.688545 0)
(-0.116699 -0.408566 0)
(-0.0287061 -0.135287 0)
(0.00111785 0.00637042 0)
(0.00165417 0.212746 0)
(-0.0154566 0.420817 0)
(-0.0423006 0.535157 0)
(-0.0703795 0.622214 0)
(-0.0966954 0.691259 0)
(-0.119608 0.73673 0)
(-0.138053 0.755035 0)
(-0.151736 0.74736 0)
(-0.161156 0.718879 0)
(-0.167448 0.676901 0)
(-0.171995 0.628672 0)
(-0.17598 0.579597 0)
(-0.180101 0.532489 0)
(-0.184547 0.487928 0)
(-0.189185 0.445259 0)
(-0.193789 0.403547 0)
(-0.198201 0.36212 0)
(-0.202375 0.320682 0)
(-0.206347 0.279198 0)
(-0.210191 0.237731 0)
(-0.213983 0.196341 0)
(-0.217782 0.155049 0)
(-0.221642 0.113846 0)
(-0.225593 0.0727 0)
(-0.229622 0.0315598 0)
(-0.233738 -0.0096276 0)
(-0.238048 -0.0508863 0)
(-0.242569 -0.0922932 0)
(-0.24724 -0.133892 0)
(-0.252065 -0.175732 0)
(-0.257036 -0.217863 0)
(-0.262142 -0.260341 0)
(-0.267362 -0.303221 0)
(-0.272657 -0.346552 0)
(-0.277938 -0.390333 0)
(-0.283031 -0.434449 0)
(-0.287629 -0.478567 0)
(-0.291307 -0.522097 0)
(-0.293737 -0.564449 0)
(-0.295295 -0.606037 0)
(-0.298021 -0.65018 0)
(-0.305955 -0.704518 0)
(-0.322554 -0.77754 0)
(-0.343858 -0.865757 0)
(-0.352714 -0.93723 0)
(-0.324609 -0.931501 0)
(-0.246496 -0.791153 0)
(-0.135363 -0.515384 0)
(-0.038197 -0.200543 0)
(0.000969485 -0.00656197 0)
(0.00338435 0.217284 0)
(-0.00719075 0.439935 0)
(-0.0282926 0.559711 0)
(-0.05089 0.646645 0)
(-0.0720669 0.713296 0)
(-0.0904183 0.755224 0)
(-0.105193 0.769465 0)
(-0.116278 0.757878 0)
(-0.124173 0.726247 0)
(-0.129834 0.682229 0)
(-0.134338 0.633055 0)
(-0.138533 0.583812 0)
(-0.142857 0.536875 0)
(-0.147364 0.49248 0)
(-0.151907 0.449817 0)
(-0.156321 0.407956 0)
(-0.160517 0.36631 0)
(-0.164498 0.32467 0)
(-0.168326 0.283045 0)
(-0.172075 0.24151 0)
(-0.175809 0.200114 0)
(-0.179581 0.158865 0)
(-0.183439 0.117742 0)
(-0.187416 0.0767075 0)
(-0.191498 0.0357054 0)
(-0.195671 -0.00532577 0)
(-0.200071 -0.0464132 0)
(-0.204733 -0.0876461 0)
(-0.20957 -0.129075 0)
(-0.214585 -0.170754 0)
(-0.219766 -0.212734 0)
(-0.225102 -0.255075 0)
(-0.230576 -0.297841 0)
(-0.236164 -0.341104 0)
(-0.241813 -0.384915 0)
(-0.247413 -0.429258 0)
(-0.252748 -0.473942 0)
(-0.257447 -0.518487 0)
(-0.261036 -0.562124 0)
(-0.263281 -0.604344 0)
(-0.265058 -0.64656 0)
(-0.269454 -0.69471 0)
(-0.281254 -0.759476 0)
(-0.301653 -0.846957 0)
(-0.319402 -0.937904 0)
(-0.309853 -0.974042 0)
(-0.251434 -0.879755 0)
(-0.149941 -0.622118 0)
(-0.0480936 -0.275662 0)
(0.000665144 -0.0234223 0)
(0.00493833 0.21672 0)
(0.00127325 0.452756 0)
(-0.0137762 0.578497 0)
(-0.0308016 0.665779 0)
(-0.0469327 0.730564 0)
(-0.0609485 0.769755 0)
(-0.072363 0.780953 0)
(-0.0811757 0.766521 0)
(-0.0878098 0.732672 0)
(-0.0929819 0.687276 0)
(-0.0974433 0.637501 0)
(-0.101738 0.588158 0)
(-0.106099 0.541298 0)
(-0.110508 0.496935 0)
(-0.114843 0.454178 0)
(-0.119 0.412133 0)
(-0.122948 0.370286 0)
(-0.126725 0.328485 0)
(-0.130397 0.286766 0)
(-0.134034 0.245203 0)
(-0.137692 0.203835 0)
(-0.141414 0.162655 0)
(-0.145246 0.121635 0)
(-0.149228 0.0807355 0)
(-0.153347 0.039902 0)
(-0.157558 -0.000935349 0)
(-0.162033 -0.0418212 0)
(-0.166838 -0.0828444 0)
(-0.171854 -0.124074 0)
(-0.177077 -0.165563 0)
(-0.182496 -0.207369 0)
(-0.188098 -0.24955 0)
(-0.193866 -0.292175 0)
(-0.19978 -0.335326 0)
(-0.205806 -0.379088 0)
(-0.211871 -0.42351 0)
(-0.217829 -0.468519 0)
(-0.223405 -0.513793 0)
(-0.228158 -0.558631 0)
(-0.231606 -0.602123 0)
(-0.233799 -0.644255 0)
(-0.236519 -0.68863 0)
(-0.244208 -0.745302 0)
(-0.261247 -0.826643 0)
(-0.282827 -0.927242 0)
(-0.287556 -0.998046 0)
(-0.248285 -0.952103 0)
(-0.159697 -0.724269 0)
(-0.0575619 -0.357882 0)
(-4.92594e-06 -0.0446366 0)
(0.00616111 0.211282 0)
(0.00957234 0.458838 0)
(0.000923791 0.591426 0)
(-0.0105148 0.679626 0)
(-0.0216995 0.743216 0)
(-0.0315551 0.780554 0)
(-0.0398233 0.789755 0)
(-0.0465653 0.773513 0)
(-0.0520786 0.738292 0)
(-0.0568073 0.692068 0)
(-0.0611765 0.641933 0)
(-0.0654556 0.5925 0)
(-0.0697202 0.54562 0)
(-0.0739171 0.50118 0)
(-0.0779636 0.458272 0)
(-0.0818167 0.41604 0)
(-0.0854915 0.374026 0)
(-0.0890425 0.332111 0)
(-0.0925369 0.290343 0)
(-0.0960365 0.24879 0)