/*--------------------------------*- C++ -*----------------------------------*\
  =========                 |
  \\      /  F ield         | OpenFOAM: The Open Source CFD Toolbox
   \\    /   O peration     | Website:  https://openfoam.org
    \\  /    A nd           | Version:  7
     \\/     M anipulation  |
\*---------------------------------------------------------------------------*/
FoamFile
{
    version     2.0;
    format      ascii;
    class       volScalarField;
    location    "800";
    object      p;
}
// * * * * * * * * * * * * * * * * * * * * * * * * * * * * * * * * * * * * * //

dimensions      [0 2 -2 0 0 0 0];

internalField   nonuniform List<scalar> 
2500
(
4.13548e-07
7.15884e-05
-8.32671e-06
-0.000307205
-0.00078169
-0.00136934
-0.00202997
-0.00275908
-0.00358238
-0.00454054
-0.00567363
-0.00701155
-0.00857119
-0.0103523
-0.0123314
-0.0144543
-0.0166288
-0.0187232
-0.0205725
-0.0219946
-0.0228144
-0.0228925
-0.0221536
-0.0206138
-0.018399
-0.0157353
-0.0129443
-0.0104433
-0.00869445
-0.00813566
-0.0091003
-0.0117258
-0.0159
-0.0213277
-0.0275497
-0.0340043
-0.0401626
-0.0456235
-0.0501556
-0.0536837
-0.0562575
-0.0580119
-0.0591212
-0.0597616
-0.0600848
-0.0602071
-0.0602063
-0.0601251
-0.0599858
-0.0598467
-6.85036e-05
4.34059e-06
-7.94964e-05
-0.00037602
-0.000828491
-0.00137275
-0.00197367
-0.00263273
-0.00337851
-0.00425135
-0.00529008
-0.00652464
-0.00797574
-0.00965111
-0.0115391
-0.0136029
-0.0157716
-0.0179335
-0.0199358
-0.0215946
-0.0227173
-0.0231341
-0.0227309
-0.0214835
-0.0194866
-0.0169572
-0.0142323
-0.0117476
-0.00998386
-0.00939827
-0.0103399
-0.0129683
-0.0171998
-0.0226857
-0.0289235
-0.035365
-0.0414561
-0.0467554
-0.0510233
-0.0542326
-0.0565008
-0.0580094
-0.0589518
-0.0595008
-0.0597927
-0.0599246
-0.0599586
-0.0599241
-0.0598226
-0.0596909
-1.84029e-05
5.02645e-05
-5.67064e-05
-0.000379249
-0.00083173
-0.00133839
-0.00186907
-0.00243658
-0.00308201
-0.00385292
-0.00479341
-0.00594387
-0.00734235
-0.0090233
-0.0110067
-0.0132814
-0.0157871
-0.0184019
-0.0209434
-0.0231849
-0.0248871
-0.0258359
-0.0258797
-0.0249672
-0.0231906
-0.0207773
-0.0180641
-0.0154848
-0.0135322
-0.0126869
-0.0133313
-0.015664
-0.0196405
-0.0249596
-0.0311127
-0.0374785
-0.0434789
-0.0486715
-0.0527752
-0.0557244
-0.0576488
-0.0587938
-0.059413
-0.0597112
-0.0598329
-0.0598679
-0.0598627
-0.0598272
-0.0597314
-0.0595871
0.000228933
0.000266935
0.000102413
-0.000278965
-0.000754818
-0.00123619
-0.00170216
-0.00218485
-0.00274534
-0.00345471
-0.00438637
-0.00561985
-0.00724001
-0.00932387
-0.0119143
-0.0149911
-0.0184511
-0.0221058
-0.0256991
-0.0289403
-0.0315449
-0.0332733
-0.0339606
-0.033543
-0.0320924
-0.0298114
-0.0270123
-0.024116
-0.0216177
-0.0200244
-0.0197739
-0.0211462
-0.024191
-0.0286956
-0.03421
-0.0401312
-0.0458367
-0.0508069
-0.0547463
-0.0575647
-0.059313
-0.0602026
-0.0605148
-0.0605095
-0.0603712
-0.0602097
-0.0600756
-0.0599697
-0.0598397
-0.0596749
0.000708389
0.000678186
0.00041891
-4.33275e-05
-0.000554568
-0.0010285
-0.00145965
-0.00190803
-0.00247438
-0.0032807
-0.00446408
-0.00617242
-0.00854499
-0.0116774
-0.0155837
-0.0201731
-0.0252489
-0.0305302
-0.0356862
-0.040376
-0.044285
-0.0471557
-0.0488099
-0.049163
-0.0482446
-0.0462003
-0.0432949
-0.0399137
-0.036529
-0.0336558
-0.0317867
-0.0313102
-0.0324288
-0.0350996
-0.0390228
-0.0436934
-0.0485113
-0.0529154
-0.0565055
-0.0590938
-0.0607136
-0.0615211
-0.0617074
-0.0615227
-0.0611862
-0.0608411
-0.0605612
-0.0603597
-0.0601834
-0.0600065
0.00146374
0.0013296
0.00095013
0.000398471
-0.000167722
-0.000674297
-0.00114598
-0.00169567
-0.0024927
-0.00374329
-0.00567316
-0.00849637
-0.0123685
-0.0173405
-0.0233322
-0.0301352
-0.0374402
-0.0448755
-0.0520476
-0.0585766
-0.0641255
-0.0684236
-0.0712832
-0.0726056
-0.0723888
-0.070717
-0.0677882
-0.0639231
-0.0595294
-0.0550824
-0.0510852
-0.0480093
-0.0462211
-0.0459069
-0.0470212
-0.0492811
-0.0522238
-0.0553196
-0.0581012
-0.0602584
-0.0616705
-0.0623859
-0.0625684
-0.0623808
-0.0619947
-0.0615692
-0.0612036
-0.0609352
-0.0607299
-0.0605585
0.0025334
0.00227048
0.00176162
0.00111008
0.000453095
-0.000166278
-0.000836256
-0.00175259
-0.00318483
-0.00544314
-0.00882944
-0.0135728
-0.01977
-0.0273538
-0.0360993
-0.0456578
-0.0556051
-0.0654878
-0.0748641
-0.0833341
-0.090563
-0.0962953
-0.100358
-0.102662
-0.1032
-0.102025
-0.0992613
-0.0951439
-0.089975
-0.0841278
-0.0780342
-0.0721604
-0.0669642
-0.0628353
-0.0600262
-0.0585945
-0.0583815
-0.0590489
-0.0601692
-0.0613403
-0.0622739
-0.0628304
-0.0630084
-0.0628957
-0.0625964
-0.0622217
-0.0618712
-0.0616026
-0.0614069
-0.0612618
0.00392372
0.00352468
0.0028856
0.00211187
0.00129652
0.000411687
-0.000728011
-0.00243184
-0.00508492
-0.00908125
-0.0147362
-0.0222056
-0.0314421
-0.0422009
-0.0540827
-0.0665938
-0.0792073
-0.0914135
-0.102758
-0.112863
-0.121442
-0.128296
-0.133301
-0.136395
-0.137595
-0.136963
-0.134571
-0.130562
-0.125122
-0.11848
-0.110925
-0.102806
-0.0945364
-0.0865723
-0.0793747
-0.073344
-0.0687444
-0.06564
-0.0638739
-0.0631134
-0.0629545
-0.063036
-0.0631132
-0.0630793
-0.0629302
-0.0627075
-0.0624739
-0.0622832
-0.0621431
-0.0620425
0.00557984
0.00505162
0.00427734
0.00333889
0.00224056
0.000843982
-0.00116313
-0.00421678
-0.00879425
-0.0153036
-0.0239741
-0.0347906
-0.0474915
-0.0616184
-0.0765939
-0.0918012
-0.106652
-0.120636
-0.133344
-0.144478
-0.153843
-0.161326
-0.166872
-0.170461
-0.172137
-0.171998
-0.170089
-0.166486
-0.161277
-0.154561
-0.146465
-0.137161
-0.126893
-0.116009
-0.104974
-0.0943573
-0.0847797
-0.0768001
-0.0707801
-0.0667705
-0.0644934
-0.0634509
-0.0631095
-0.0630545
-0.0630553
-0.063036
-0.0629915
-0.0629448
-0.0628998
-0.0628548
0.00735122
0.00670801
0.00578737
0.00460223
0.00302367
0.000772675
-0.00260286
-0.00764371
-0.0148491
-0.0245358
-0.0367392
-0.051193
-0.0673811
-0.0846323
-0.102226
-0.119483
-0.135828
-0.150825
-0.164171
-0.175685
-0.185283
-0.192943
-0.198674
-0.202491
-0.204459
-0.204702
-0.203256
-0.200164
-0.195459
-0.189158
-0.181272
-0.171815
-0.160836
-0.148464
-0.134975
-0.120845
-0.106784
-0.0936842
-0.0824664
-0.0738386
-0.0680509
-0.0648031
-0.0633939
-0.0630324
-0.0631076
-0.0632892
-0.0634694
-0.0636075
-0.0636826
-0.0636973
0.00897978
0.00824058
0.00713805
0.00557321
0.00324876
-0.000268369
-0.00555347
-0.0131885
-0.0235906
-0.0368719
-0.0527861
-0.0707722
-0.0900649
-0.109828
-0.129277
-0.14776
-0.164804
-0.180106
-0.193503
-0.204939
-0.21442
-0.221994
-0.227708
-0.231603
-0.233741
-0.23425
-0.233163
-0.230512
-0.226313
-0.220559
-0.213212
-0.204203
-0.193446
-0.180873
-0.166502
-0.15053
-0.13345
-0.11613
-0.099778
-0.0857323
-0.0750636
-0.0681662
-0.0645966
-0.0633277
-0.063255
-0.0635981
-0.0639969
-0.0643326
-0.0645377
-0.0646125
0.010112
0.00928165
0.00793011
0.00580828
0.00243138
-0.00277688
-0.0104641
-0.0211587
-0.0350831
-0.0520517
-0.0714889
-0.0925459
-0.114265
-0.135736
-0.156214
-0.175171
-0.192292
-0.207433
-0.220566
-0.231725
-0.240979
-0.248403
-0.254059
-0.257988
-0.260243
-0.260935
-0.260088
-0.257735
-0.253896
-0.248569
-0.241721
-0.233274
-0.223101
-0.211036
-0.19691
-0.180633
-0.162327
-0.142506
-0.12222
-0.103048
-0.0867845
-0.0748454
-0.0676481
-0.0644299
-0.0637133
-0.0640794
-0.0646748
-0.0652027
-0.0655398
-0.065678
0.0103191
0.00938341
0.00769172
0.0048141
8.27543e-05
-0.00718487
-0.0176312
-0.0316265
-0.0491034
-0.0695253
-0.0919909
-0.115422
-0.138766
-0.161151
-0.181969
-0.200869
-0.217715
-0.232503
-0.245299
-0.25619
-0.265263
-0.272592
-0.278233
-0.282218
-0.284579
-0.285407
-0.284715
-0.282534
-0.278891
-0.273799
-0.267248
-0.259192
-0.24953
-0.238099
-0.224672
-0.208994
-0.190873
-0.170361
-0.14801
-0.125103
-0.103655
-0.0859578
-0.073689
-0.0670745
-0.0647976
-0.064842
-0.0655864
-0.0662985
-0.0667759
-0.0669892
0.00915657
0.00809014
0.0059566
0.00213605
-0.0041958
-0.0137705
-0.0271372
-0.0444163
-0.0651915
-0.0885707
-0.11338
-0.138408
-0.162621
-0.185283
-0.205977
-0.224547
-0.241004
-0.255442
-0.267972
-0.278695
-0.287687
-0.295007
-0.300694
-0.304764
-0.307233
-0.308176
-0.307592
-0.305512
-0.30196
-0.296959
-0.290518
-0.282627
-0.273237
-0.26224
-0.249453
-0.234602
-0.217353
-0.197419
-0.174791
-0.150101
-0.12495
-0.101895
-0.083732
-0.0722121
-0.0670263
-0.0660517
-0.0667825
-0.0676868
-0.0683289
-0.0686427
0.00624817
0.0050186
0.00235103
-0.00255401
-0.0106342
-0.0226035
-0.0388368
-0.0591425
-0.0827402
-0.108423
-0.134833
-0.160738
-0.185217
-0.207732
-0.228068
-0.24623
-0.262332
-0.276511
-0.288888
-0.299547
-0.308544
-0.315914
-0.321681
-0.32585
-0.328424
-0.329467
-0.328975
-0.326968
-0.323468
-0.318497
-0.312071
-0.3042
-0.294876
-0.284056
-0.271639
-0.257426
-0.241105
-0.222264
-0.200518
-0.175823
-0.148966
-0.12202
-0.0982114
-0.0807683
-0.0711397
-0.0680192
-0.0683357
-0.0694291
-0.0702718
-0.0707284
0.00135518
-6.81375e-05
-0.00333332
-0.00939429
-0.01925
-0.0335335
-0.052386
-0.0752784
-0.101092
-0.128381
-0.155704
-0.181903
-0.206239
-0.22838
-0.248287
-0.266077
-0.281913
-0.295938
-0.308252
-0.318914
-0.327955
-0.335395
-0.341245
-0.345505
-0.34817
-0.3493
-0.348891
-0.346954
-0.343506
-0.338563
-0.332138
-0.324246
-0.314897
-0.30409
-0.291795
-0.277918
-0.262254
-0.244445
-0.223988
-0.200402
-0.173648
-0.144824
-0.116697
-0.0932797
-0.0779647
-0.0712688
-0.0704107
-0.0715905
-0.0726813
-0.0733369
-0.00557498
-0.00721311
-0.0110989
-0.0183077
-0.0298469
-0.0462187
-0.0672995
-0.0922337
-0.119621
-0.147865
-0.175535
-0.201616
-0.225572
-0.247255
-0.266756
-0.284252
-0.299911
-0.313855
-0.326155
-0.336842
-0.34593
-0.353428
-0.359344
-0.363674
-0.366412
-0.367612
-0.367277
-0.365412
-0.362026
-0.357131
-0.350735
-0.342846
-0.333476
-0.322638
-0.310343
-0.296575
-0.281251
-0.264151
-0.244855
-0.222748
-0.197251
-0.168434
-0.137961
-0.109603
-0.0881347
-0.0764761
-0.0733259
-0.0742737
-0.0756713
-0.0765747
-0.0143943
-0.0162541
-0.0207403
-0.0290152
-0.0420479
-0.0601792
-0.0830185
-0.109422
-0.137782
-0.166436
-0.194038
-0.219745
-0.243214
-0.264442
-0.283596
-0.30087
-0.316412
-0.330312
-0.342609
-0.353316
-0.362433
-0.369966
-0.375922
-0.380299
-0.383091
-0.384346
-0.384076
-0.382278
-0.37896
-0.37413
-0.367792
-0.359948
-0.350604
-0.33977
-0.327466
-0.313715
-0.29852
-0.281803
-0.263315
-0.242539
-0.218714
-0.191189
-0.160358
-0.128874
-0.101808
-0.0842848
-0.0775409
-0.0776391
-0.0793655
-0.0805536
-0.0247747
-0.0268473
-0.0318764
-0.0410797
-0.0553512
-0.0748605
-0.0989718
-0.126309
-0.155132
-0.183784
-0.211042
-0.236244
-0.259203
-0.280016
-0.298885
-0.315989
-0.331445
-0.345308
-0.357593
-0.368299
-0.377422
-0.384967
-0.390942
-0.395349
-0.39818
-0.399476
-0.39926
-0.397522
-0.39427
-0.389511
-0.383248
-0.375479
-0.366205
-0.355431
-0.343168
-0.329446
-0.314306
-0.297767
-0.279748
-0.259937
-0.237668
-0.211993
-0.182308
-0.149746
-0.118537
-0.0950714
-0.0835609
-0.081917
-0.0838694
-0.0853865
-0.0362547
-0.0385165
-0.0440037
-0.053965
-0.0691922
-0.0896926
-0.114623
-0.142437
-0.171328
-0.199694
-0.226454
-0.251104
-0.273576
-0.294026
-0.312657
-0.329621
-0.344999
-0.358818
-0.371074
-0.38176
-0.390871
-0.398411
-0.404391
-0.408815
-0.411673
-0.413001
-0.412828
-0.411141
-0.40795
-0.403259
-0.397072
-0.389391
-0.380214
-0.369541
-0.357375
-0.343739
-0.328674
-0.312243
-0.29448
-0.275277
-0.254203
-0.230367
-0.202636
-0.170758
-0.137355
-0.108779
-0.0918136
-0.0874004
-0.0892734
-0.0911928
-0.0482986
-0.0507131
-0.0565592
-0.0670971
-0.0830005
-0.104136
-0.129498
-0.157431
-0.186111
-0.214022
-0.240218
-0.264323
-0.286352
-0.306487
-0.324914
-0.341752
-0.357051
-0.370812
-0.383025
-0.393677
-0.402763
-0.410289
-0.416266
-0.420698
-0.423578
-0.424927
-0.424791
-0.423146
-0.420006
-0.415375
-0.409261
-0.401666
-0.392593
-0.382039
-0.370008
-0.356509
-0.341575
-0.32527
-0.307682
-0.28885
-0.268595
-0.246279
-0.220696
-0.190668
-0.157019
-0.124881
-0.102497
-0.0943688
-0.09567
-0.0980845
-0.0603564
-0.0628766
-0.0689778
-0.0799179
-0.0962439
-0.117711
-0.1432
-0.170993
-0.19929
-0.226665
-0.252292
-0.275891
-0.297529
-0.31739
-0.335636
-0.352354
-0.367568
-0.381264
-0.393424
-0.404034
-0.413091
-0.420599
-0.426568
-0.431006
-0.4339
-0.435265
-0.435158
-0.433548
-0.430449
-0.42587
-0.419818
-0.412301
-0.403325
-0.392892
-0.381007
-0.367676
-0.352921
-0.336792
-0.319387
-0.300819
-0.281107
-0.259919
-0.236277
-0.208629
-0.176295
-0.142479
-0.115463
-0.103014
-0.103167
-0.106118
-0.071914
-0.0744889
-0.0807401
-0.0919254
-0.108458
-0.130015
-0.155407
-0.182895
-0.210721
-0.237546
-0.262638
-0.285788
-0.307086
-0.326708
-0.344791
-0.361394
-0.376521
-0.390148
-0.402253
-0.412822
-0.421851
-0.42934
-0.435301
-0.439741
-0.442648
-0.444022
-0.443938
-0.442355
-0.43929
-0.434751
-0.428749
-0.421297
-0.412405
-0.402081
-0.390336
-0.377179
-0.362625
-0.346716
-0.329533
-0.311215
-0.291895
-0.27151
-0.249435
-0.224193
-0.194163
-0.16048
-0.130197
-0.113348
-0.111822
-0.115234
-0.0825528
-0.0850884
-0.0914059
-0.102698
-0.119263
-0.140728
-0.165872
-0.192964
-0.220295
-0.246601
-0.271219
-0.293983
-0.314991
-0.334407
-0.352343
-0.368839
-0.383883
-0.397444
-0.409499
-0.420032
-0.429037
-0.436513
-0.442467
-0.446908
-0.449825
-0.451205
-0.451139
-0.449576
-0.446534
-0.442023
-0.436059
-0.428655
-0.419828
-0.409595
-0.397972
-0.384974
-0.370622
-0.354948
-0.338023
-0.319978
-0.300997
-0.281201
-0.260317
-0.237208
-0.209907
-0.1778
-0.14589
-0.125129
-0.121535
-0.125191
-0.0919557
-0.0942983
-0.100615
-0.111908
-0.128365
-0.149608
-0.174411
-0.201072
-0.22793
-0.253777
-0.277995
-0.300438
-0.321207
-0.340448
-0.358257
-0.374657
-0.389627
-0.403134
-0.415149
-0.425655
-0.434645
-0.442115
-0.448068
-0.452512
-0.455437
-0.456825
-0.456769
-0.455219
-0.452189
-0.447695
-0.44175
-0.434376
-0.425592
-0.415424
-0.403895
-0.391032
-0.376859
-0.361413
-0.344756
-0.327006
-0.308359
-0.289037
-0.269049
-0.247688
-0.223103
-0.193505
-0.161574
-0.137828
-0.131966
-0.135567
-0.0998745
-0.101889
-0.108098
-0.119313
-0.135561
-0.156486
-0.180896
-0.207129
-0.233564
-0.259029
-0.282927
-0.305118
-0.325696
-0.344795
-0.362498
-0.378819
-0.393732
-0.407199
-0.41919
-0.429685
-0.438673
-0.446147
-0.452107
-0.456557
-0.459492
-0.46089
-0.46084
-0.459298
-0.45627
-0.451776
-0.445833
-0.438464
-0.429697
-0.419562
-0.408094
-0.395326
-0.381296
-0.366047
-0.34964
-0.332187
-0.313877
-0.294977
-0.275685
-0.255694
-0.233545
-0.206891
-0.176267
-0.150697
-0.14257
-0.145824
-0.106143
-0.107741
-0.113699
-0.124761
-0.140732
-0.161279
-0.185272
-0.211095
-0.237165
-0.262326
-0.285983
-0.307988
-0.328421
-0.347411
-0.365033
-0.381297
-0.396173
-0.409621
-0.421608
-0.43211
-0.441112
-0.448605
-0.454583
-0.459048
-0.461995
-0.463404
-0.463356
-0.461819
-0.458784
-0.454277
-0.448317
-0.440929
-0.432147
-0.422009
-0.410559
-0.397842
-0.383905
-0.368802
-0.352604
-0.335419
-0.317432
-0.298922
-0.280199
-0.261269
-0.241159
-0.217484
-0.1891
-0.16289
-0.152713
-0.155392
-0.110694
-0.111818
-0.117377
-0.128193
-0.143827
-0.163944
-0.187494
-0.212925
-0.238687
-0.263626
-0.287129
-0.309021
-0.32937
-0.348292
-0.365862
-0.382094
-0.396957
-0.410409
-0.422414
-0.432943
-0.441977
-0.449502
-0.455508
-0.459991
-0.462945
-0.464359
-0.464308
-0.462774
-0.459723
-0.455188
-0.449192
-0.441761
-0.432933
-0.422755
-0.41128
-0.398562
-0.384661
-0.369643
-0.353588
-0.336615
-0.318908
-0.300751
-0.282509
-0.264405
-0.245929
-0.225003
-0.199384
-0.173592
-0.161764
-0.163729
-0.113556
-0.114175
-0.119199
-0.129656
-0.144887
-0.164519
-0.187589
-0.212622
-0.238106
-0.262879
-0.286293
-0.308139
-0.328456
-0.347354
-0.364912
-0.381145
-0.396029
-0.409519
-0.421575
-0.432165
-0.441265
-0.448854
-0.454918
-0.45945
-0.462442
-0.463878
-0.463802
-0.462238
-0.459138
-0.454537
-0.448463
-0.440949
-0.43204
-0.421782
-0.410235
-0.397463
-0.383535
-0.368531
-0.352545
-0.335706
-0.318208
-0.300341
-0.282503
-0.26505
-0.247848
-0.229301
-0.206626
-0.18209
-0.169151
-0.170355
-0.114836
-0.114952
-0.119321
-0.129279
-0.144021
-0.163099
-0.185632
-0.210239
-0.235449
-0.26009
-0.283467
-0.305321
-0.325659
-0.344578
-0.36216
-0.378428
-0.393362
-0.40692
-0.419059
-0.429739
-0.438931
-0.446608
-0.452753
-0.457351
-0.460394
-0.461869
-0.461796
-0.460212
-0.457061
-0.452384
-0.446213
-0.438581
-0.429534
-0.419129
-0.407434
-0.394528
-0.380496
-0.365427
-0.349424
-0.332629
-0.315249
-0.297587
-0.280064
-0.263121
-0.246897
-0.230308
-0.210505
-0.187815
-0.174378
-0.174852
-0.114711
-0.114362
-0.117977
-0.127264
-0.141395
-0.159823
-0.181735
-0.205851
-0.230757
-0.25527
-0.278642
-0.300551
-0.32096
-0.339947
-0.357594
-0.373934
-0.388954
-0.402616
-0.414872
-0.425678
-0.434995
-0.442793
-0.449046
-0.453734
-0.456844
-0.458365
-0.458298
-0.456694
-0.453485
-0.448715
-0.442423
-0.434643
-0.425424
-0.414829
-0.402933
-0.389821
-0.375586
-0.360334
-0.344192
-0.327326
-0.309956
-0.292395
-0.275086
-0.258522
-0.243036
-0.228
-0.210828
-0.190334
-0.17702
-0.176855
-0.11341
-0.112665
-0.115466
-0.123887
-0.137238
-0.154882
-0.176047
-0.199562
-0.224084
-0.248432
-0.271801
-0.293795
-0.314319
-0.333423
-0.351183
-0.367639
-0.382788
-0.396595
-0.409011
-0.419983
-0.429467
-0.437423
-0.443817
-0.448623
-0.451822
-0.453401
-0.453348
-0.451722
-0.44845
-0.443573
-0.437135
-0.429172
-0.419737
-0.408897
-0.396733
-0.383337
-0.368815
-0.353284
-0.336886
-0.319804
-0.302289
-0.284693
-0.267478
-0.251166
-0.23622
-0.222366
-0.207497
-0.18934
-0.176706
-0.176039
-0.111197
-0.110155
-0.112127
-0.119485
-0.13184
-0.148519
-0.168766
-0.191514
-0.215514
-0.239605
-0.26293
-0.285013
-0.305687
-0.324956
-0.342882
-0.359508
-0.374837
-0.388838
-0.401461
-0.412649
-0.422345
-0.430501
-0.437075
-0.442034
-0.44535
-0.447005
-0.446984
-0.445337
-0.442
-0.437004
-0.430397
-0.422219
-0.412523
-0.401381
-0.388879
-0.375116
-0.360207
-0.344282
-0.3275
-0.310068
-0.292266
-0.274474
-0.257197
-0.240992
-0.226405
-0.213409
-0.200475
-0.184626
-0.173114
-0.172106
-0.108349
-0.107124
-0.108304
-0.114433
-0.125542
-0.141023
-0.160129
-0.181888
-0.205163
-0.228839
-0.252027
-0.274167
-0.295006
-0.314487
-0.332639
-0.349498
-0.365069
-0.379325
-0.392214
-0.403671
-0.413633
-0.42204
-0.428841
-0.433992
-0.43746
-0.439219
-0.439251
-0.437588
-0.43419
-0.429068
-0.422272
-0.413847
-0.403847
-0.392346
-0.379434
-0.365216
-0.349814
-0.333372
-0.316069
-0.298134
-0.279883
-0.261735
-0.244241
-0.227994
-0.213587
-0.20115
-0.189768
-0.176072
-0.165959
-0.164775
-0.105134
-0.10384
-0.104317
-0.109113
-0.118723
-0.132726
-0.150414
-0.170903
-0.193182
-0.216214
-0.239104
-0.261221
-0.282213
-0.301943
-0.320387
-0.337556
-0.353448
-0.368034
-0.381259
-0.393054
-0.403346
-0.412064
-0.419146
-0.424539
-0.428199
-0.430096
-0.430204
-0.428544
-0.42509
-0.419839
-0.412838
-0.404138
-0.393793
-0.381876
-0.368481
-0.353717
-0.337713
-0.320627
-0.302656
-0.284059
-0.265189
-0.246514
-0.228633
-0.212191
-0.197822
-0.185661
-0.175435
-0.163637
-0.154993
-0.153774
-0.101788
-0.100522
-0.100428
-0.10388
-0.111778
-0.123993
-0.139931
-0.158811
-0.179754
-0.201837
-0.224196
-0.246146
-0.26724
-0.287238
-0.30604
-0.323609
-0.33992
-0.354933
-0.368587
-0.380805
-0.391505
-0.400606
-0.408034
-0.413725
-0.417628
-0.419703
-0.41992
-0.418284
-0.414787
-0.409408
-0.402193
-0.393193
-0.382463
-0.370076
-0.356124
-0.340722
-0.324006
-0.306145
-0.28736
-0.26794
-0.248281
-0.228904
-0.210464
-0.19366
-0.179182
-0.167089
-0.157607
-0.147362
-0.140028
-0.138844
-0.0984963
-0.0973257
-0.0968245
-0.0990245
-0.105084
-0.115212
-0.129026
-0.145895
-0.165098
-0.185853
-0.207366
-0.228936
-0.250025
-0.27028
-0.289499
-0.307568
-0.324417
-0.339979
-0.354178
-0.366926
-0.378132
-0.387703
-0.395555
-0.401614
-0.405819
-0.408122
-0.408488
-0.406907
-0.403385
-0.397885
-0.39045
-0.38113
-0.369981
-0.357071
-0.342493
-0.326364
-0.308827
-0.290065
-0.270321
-0.249923
-0.229311
-0.209065
-0.189902
-0.172572
-0.157803
-0.145641
-0.13648
-0.127369
-0.120961
-0.119757
-0.0953888
-0.0943543
-0.0936145
-0.0947488
-0.0989622
-0.10676
-0.118058
-0.132464
-0.14946
-0.168439
-0.18872
-0.20962
-0.230533
-0.25099
-0.270662
-0.289333
-0.306855
-0.323113
-0.338002
-0.351416
-0.363249
-0.373399
-0.381771
-0.388281
-0.392859
-0.39545
-0.396013
-0.394525
-0.391002
-0.385395
-0.377741
-0.368088
-0.356489
-0.34301
-0.327743
-0.310805
-0.292347
-0.272568
-0.251737
-0.230218
-0.208507
-0.187242
-0.167203
-0.149188
-0.133952
-0.121549
-0.11232
-0.103842
-0.0977829
-0.096274
-0.0925434
-0.0916632
-0.090838
-0.0911522
-0.0936378
-0.0989643
-0.107382
-0.118841
-0.133111
-0.14981
-0.16841
-0.188282
-0.208782
-0.22933
-0.249457
-0.268815
-0.28715
-0.30427
-0.32002
-0.334264
-0.346875
-0.357737
-0.366745
-0.373806
-0.378843
-0.381793
-0.382611
-0.381266
-0.377772
-0.37208
-0.364215
-0.354222
-0.342153
-0.32807
-0.312062
-0.294248
-0.274789
-0.253898
-0.231874
-0.209123
-0.186193
-0.163784
-0.142736
-0.123886
-0.108003
-0.0951026
-0.08548
-0.0770073
-0.0705435
-0.0680548
-0.0899922
-0.0892747
-0.0884868
-0.0882391
-0.0892123
-0.0920485
-0.0972932
-0.105332
-0.116333
-0.130214
-0.146644
-0.165084
-0.184876
-0.205346
-0.225882
-0.245982
-0.265256
-0.283407
-0.300205
-0.315464
-0.329028
-0.34076
-0.350542
-0.358273
-0.36387
-0.367265
-0.368407
-0.367263
-0.363837
-0.358092
-0.350035
-0.339709
-0.327163
-0.312456
-0.295678
-0.276949
-0.256439
-0.23438
-0.211098
-0.187044
-0.162816
-0.139174
-0.117003
-0.0971664
-0.0804281
-0.0667222
-0.0563909
-0.047134
-0.0394448
-0.0346987
-0.0877266
-0.0871848
-0.0865244
-0.0859384
-0.085647
-0.08608
-0.087974
-0.0921877
-0.0994009
-0.10993
-0.123696
-0.140284
-0.159044
-0.179222
-0.200068
-0.220917
-0.241222
-0.260553
-0.278581
-0.295048
-0.309752
-0.322527
-0.33324
-0.341778
-0.348051
-0.35199
-0.35354
-0.352665
-0.349361
-0.343607
-0.335392
-0.324755
-0.311747
-0.296427
-0.278882
-0.259239
-0.237675
-0.214444
-0.1899
-0.164529
-0.138977
-0.114044
-0.0906458
-0.0696511
-0.051796
-0.0369362
-0.0255206
-0.0145504
-0.00512468
0.00385362
-0.08569
-0.0853539
-0.0848908
-0.0841179
-0.0827628
-0.0809289
-0.0794216
-0.0795431
-0.082554
-0.0892664
-0.0999231
-0.114265
-0.131673
-0.151326
-0.172344
-0.193898
-0.215274
-0.235892
-0.255299
-0.273147
-0.28917
-0.303164
-0.314968
-0.324457
-0.331534
-0.336126
-0.338178
-0.337653
-0.33454
-0.328836
-0.320517
-0.30962
-0.296197
-0.280311
-0.262051
-0.24155
-0.218997
-0.194663
-0.168925
-0.142297
-0.11545
-0.0891983
-0.0644524
-0.0420558
-0.0226976
-0.00619179
0.00689633
0.0206448
0.0315747
0.0474137
-0.0837615
-0.083686
-0.0834782
-0.082574
-0.0802411
-0.076255
-0.0714091
-0.0673659
-0.0659604
-0.0685552
-0.0757785
-0.0875695
-0.103358
-0.122269
-0.143302
-0.165474
-0.187902
-0.209849
-0.230727
-0.250081
-0.267567
-0.282927
-0.295968
-0.306545
-0.314552
-0.31991
-0.322565
-0.322482
-0.319645
-0.314066
-0.305723
-0.294648
-0.280899
-0.264544
-0.245681
-0.224449
-0.201049
-0.175766
-0.14899
-0.12124
-0.0931802
-0.0655969
-0.0393428
-0.0151827
0.00628365
0.0252993
0.0412682
0.0592506
0.0715962
0.0980664
-0.0817468
-0.0819984
-0.082079
-0.0809882
-0.0776216
-0.0715353
-0.0635041
-0.0554543
-0.0497073
-0.0481546
-0.0518363
-0.0609265
-0.0749307
-0.0929365
-0.11384
-0.136515
-0.159922
-0.183171
-0.205535
-0.226447
-0.245475
-0.262297
-0.276679
-0.28845
-0.29749
-0.303716
-0.307073
-0.307528
-0.305066
-0.299704
-0.291441
-0.280307
-0.266365
-0.249695
-0.230404
-0.208643
-0.184623
-0.158631
-0.13105
-0.102376
-0.0732211
-0.0442834
-0.0162952
0.0101267
0.034548
0.0573989
0.0782877
0.103059
0.120068
0.163126
-0.0794327
-0.0800396
-0.0804055
-0.0789639
-0.0743642
-0.0661555
-0.0551807
-0.0435274
-0.0338538
-0.0284751
-0.0288091
-0.0352772
-0.0474868
-0.0645157
-0.0851799
-0.108234
-0.132503
-0.156956
-0.180738
-0.20317
-0.22373
-0.242031
-0.25779
-0.270806
-0.280943
-0.288107
-0.292245
-0.293327
-0.291342
-0.286306
-0.278245
-0.267196
-0.253235
-0.236455
-0.216973
-0.19495
-0.170597
-0.144191
-0.116084
-0.0867066
-0.056563
-0.0261989
0.00385225
0.0332039
0.0616754
0.0900163
0.118232
0.153416
0.183202
0.247904
-0.0769235
-0.0777713
-0.0782673
-0.0762201
-0.0701701
-0.0597442
-0.0460819
-0.0314336
-0.0185665
-0.0100396
-0.00755665
-0.011753
-0.0223498
-0.0384468
-0.0588179
-0.0821344
-0.107114
-0.132611
-0.15766
-0.181482
-0.203472
-0.223177
-0.240265
-0.254503
-0.265736
-0.273862
-0.278823
-0.280594
-0.279175
-0.274584
-0.266858
-0.256047
-0.242247
-0.225574
-0.206156
-0.18415
-0.159756
-0.133221
-0.104838
-0.0749341
-0.0438527
-0.0119091
0.0206692
0.0538759
0.0879555
0.1241
0.162622
0.212282
0.259792
0.338375
-0.0755045
-0.076201
-0.0763266
-0.0731001
-0.0652196
-0.05257
-0.036497
-0.0195099
-0.00438454
0.00637952
0.0108863
0.00835625
-0.00100885
-0.0163473
-0.0364351
-0.0599062
-0.0854124
-0.111728
-0.137805
-0.162785
-0.185993
-0.206918
-0.225186
-0.240533
-0.25278
-0.261819
-0.267588
-0.270065
-0.269258
-0.265198
-0.257942
-0.247532
-0.234054
-0.217652
-0.198475
-0.176681
-0.152444
-0.125963
-0.0974512
-0.0671062
-0.0350687
-0.0013451
0.0342969
0.0725244
0.114505
0.162569
0.217785
0.288915
0.349293
0.424276
-0.0796798
-0.0789782
-0.0773663
-0.0717545
-0.0612075
-0.0459722
-0.0276535
-0.00885261
0.00765201
0.0196502
0.0253788
0.0238389
0.0152189
0.000358087
-0.0195441
-0.0431196
-0.0689925
-0.0958936
-0.122722
-0.148566
-0.172701
-0.194572
-0.213769
-0.230005
-0.243083
-0.252883
-0.259342
-0.26244
-0.262188
-0.258626
-0.251817
-0.241852
-0.228806
-0.21276
-0.193871
-0.172317
-0.148259
-0.12185
-0.0932214
-0.0624343
-0.0294036
0.00623604
0.0453346
0.0896072
0.141973
0.207655
0.291451
0.403382
0.495662
0.603257
-0.103111
-0.0952873
-0.0868381
-0.076048
-0.0616854
-0.0433582
-0.022711
-0.00232169
0.0153636
0.0281352
0.0343056
0.0331894
0.0249788
0.0104645
-0.00919972
-0.0326799
-0.0586158
-0.0857341
-0.112914
-0.139217
-0.163885
-0.186333
-0.206126
-0.222951
-0.236599
-0.246939
-0.2539
-0.257459
-0.25763
-0.254455
-0.247998
-0.238346
-0.225596
-0.209856
-0.191253
-0.169923
-0.146016
-0.119654
-0.0909018
-0.0596946
-0.0257298
0.0117369
0.0542211
0.104645
0.168137
0.254194
0.375492
0.555557
0.767546
1.10773
-0.189942
-0.112184
-0.0805934
-0.0713633
-0.0580868
-0.0387181
-0.0170292
0.00396662
0.0217615
0.0341821
0.039825
0.0382084
0.0296053
0.0148354
-0.00495467
-0.0284674
-0.0543883
-0.081483
-0.108658
-0.134987
-0.159721
-0.18227
-0.202194
-0.219174
-0.232993
-0.243515
-0.250663
-0.254412
-0.254774
-0.251788
-0.245519
-0.236051
-0.223484
-0.207925
-0.189495
-0.168325
-0.144548
-0.118259
-0.0894631
-0.0580008
-0.0234039
0.0153521
0.0602595
0.115062
0.186321
0.286383
0.435138
0.68022
1.07925
1.82844
)
;

boundaryField
{
    movingWall
    {
        type            zeroGradient;
    }
    fixedWalls
    {
        type            zeroGradient;
    }
    frontAndBack
    {
        type            empty;
    }
}


// ************************************************************************* //
