/*--------------------------------*- C++ -*----------------------------------*\
  =========                 |
  \\      /  F ield         | OpenFOAM: The Open Source CFD Toolbox
   \\    /   O peration     | Website:  https://openfoam.org
    \\  /    A nd           | Version:  7
     \\/     M anipulation  |
\*---------------------------------------------------------------------------*/
FoamFile
{
    version     2.0;
    format      ascii;
    class       volVectorField;
    location    "800";
    object      U;
}
// * * * * * * * * * * * * * * * * * * * * * * * * * * * * * * * * * * * * * //

dimensions      [0 1 -1 0 0 0 0];

internalField   nonuniform List<vector> 
2500
(
(0.000207133 -0.000201735 0)
(0.00186555 -0.000571566 0)
(0.00447456 -0.000697804 0)
(0.00716368 -0.000600169 0)
(0.00922972 -0.000419013 0)
(0.0104509 -0.000264372 0)
(0.0109305 -0.000188074 0)
(0.0108812 -0.000185974 0)
(0.0104505 -0.00021997 0)
(0.00963359 -0.000245518 0)
(0.00828125 -0.00022873 0)
(0.00616104 -0.000150756 0)
(0.00301559 -2.54872e-06 0)
(-0.0013989 0.000221272 0)
(-0.00728715 0.00052385 0)
(-0.0147818 0.00090874 0)
(-0.0239052 0.00137597 0)
(-0.0345276 0.00191392 0)
(-0.0463309 0.00248938 0)
(-0.0587893 0.00304004 0)
(-0.0711741 0.00347612 0)
(-0.0825918 0.00369298 0)
(-0.092053 0.00359212 0)
(-0.0985749 0.00310829 0)
(-0.101292 0.0022357 0)
(-0.0995297 0.00103235 0)
(-0.0930196 -0.000371026 0)
(-0.0818344 -0.00180878 0)
(-0.0664412 -0.00310733 0)
(-0.0476964 -0.00409971 0)
(-0.0268184 -0.00464093 0)
(-0.00528978 -0.00460844 0)
(0.0153635 -0.00393961 0)
(0.0336711 -0.00278887 0)
(0.0483259 -0.00137606 0)
(0.0583708 0.000121007 0)
(0.0634247 0.00149273 0)
(0.0636994 0.00253096 0)
(0.06 0.0031097 0)
(0.0534918 0.00322369 0)
(0.0454067 0.00298606 0)
(0.0368485 0.00254968 0)
(0.0286545 0.00204902 0)
(0.0213453 0.00157474 0)
(0.0151508 0.00117461 0)
(0.0100825 0.000863749 0)
(0.00603092 0.000631515 0)
(0.00290232 0.000436254 0)
(0.000795902 0.000192979 0)
(-8.19207e-05 -8.7312e-05 0)
(0.000566056 -0.00181981 0)
(0.00437436 -0.00431797 0)
(0.00958191 -0.00511765 0)
(0.0146038 -0.00444071 0)
(0.0181609 -0.00299806 0)
(0.0197669 -0.00145739 0)
(0.0194604 -0.000191971 0)
(0.0174525 0.000766271 0)
(0.0138282 0.00162626 0)
(0.00839834 0.00266676 0)
(0.000725785 0.00410506 0)
(-0.00974589 0.00604706 0)
(-0.0235459 0.00849693 0)
(-0.0410367 0.0113876 0)
(-0.0622985 0.0145806 0)
(-0.0870237 0.0178503 0)
(-0.114454 0.020876 0)
(-0.143395 0.0232655 0)
(-0.172324 0.0246098 0)
(-0.199559 0.0245519 0)
(-0.223445 0.0228446 0)
(-0.242501 0.0193883 0)
(-0.255528 0.0142471 0)
(-0.26167 0.00765357 0)
(-0.260451 -2.60332e-06 0)
(-0.251804 -0.00820538 0)
(-0.235924 -0.0163842 0)
(-0.213258 -0.0239853 0)
(-0.184572 -0.0304458 0)
(-0.150955 -0.0352317 0)
(-0.113815 -0.0378804 0)
(-0.0748515 -0.0380482 0)
(-0.0359731 -0.0355901 0)
(0.000885567 -0.0306882 0)
(0.033879 -0.023841 0)
(0.0613298 -0.0157742 0)
(0.08192 -0.00730911 0)
(0.0949274 0.000671836 0)
(0.100217 0.00732507 0)
(0.0984003 0.0120679 0)
(0.0909327 0.014702 0)
(0.0795996 0.0154289 0)
(0.0662273 0.0147126 0)
(0.0524142 0.0131069 0)
(0.0393388 0.0111176 0)
(0.0276964 0.00911132 0)
(0.0177757 0.00724998 0)
(0.0096839 0.00543583 0)
(0.0037271 0.00334424 0)
(0.000329454 0.000919033 0)
(0.000785937 -0.00449638 0)
(0.00568837 -0.0096965 0)
(0.0117175 -0.0109176 0)
(0.0169052 -0.00900511 0)
(0.0197611 -0.00542259 0)
(0.0197081 -0.0014678 0)
(0.0166638 0.00215511 0)
(0.0106259 0.00542647 0)
(0.00136868 0.00878559 0)
(-0.01164 0.0127989 0)
(-0.0291134 0.0178525 0)
(-0.0516791 0.0240232 0)
(-0.0796424 0.0310994 0)
(-0.112773 0.0386172 0)
(-0.150197 0.0458961 0)
(-0.190437 0.0521171 0)
(-0.231604 0.0564565 0)
(-0.271663 0.0582281 0)
(-0.308689 0.0569859 0)
(-0.341056 0.0525639 0)
(-0.367529 0.0450617 0)
(-0.387262 0.0347947 0)
(-0.399742 0.0222357 0)
(-0.404711 0.00796484 0)
(-0.402092 -0.00736776 0)
(-0.391863 -0.0230799 0)
(-0.37406 -0.0384607 0)
(-0.348953 -0.0527221 0)
(-0.317026 -0.0650291 0)
(-0.279046 -0.0745423 0)
(-0.236105 -0.0804879 0)
(-0.189636 -0.0822561 0)
(-0.1414 -0.0795159 0)
(-0.093401 -0.072322 0)
(-0.0477508 -0.0612213 0)
(-0.00644468 -0.047219 0)
(0.0287944 -0.0316064 0)
(0.0566074 -0.0158313 0)
(0.0763015 -0.00118391 0)
(0.0876043 0.0111391 0)
(0.0907763 0.0202293 0)
(0.0870706 0.0257225 0)
(0.0781921 0.0278499 0)
(0.0660304 0.0273008 0)
(0.052386 0.0249739 0)
(0.0387203 0.0217245 0)
(0.0260342 0.0181233 0)
(0.0149686 0.0142408 0)
(0.00625694 0.00958472 0)
(0.000705315 0.0035877 0)
(0.000917733 -0.00772796 0)
(0.006068 -0.0155934 0)
(0.0115445 -0.0165373 0)
(0.0151601 -0.0124494 0)
(0.0154115 -0.00572989 0)
(0.01174 0.00170457 0)
(0.00392075 0.00894891 0)
(-0.0083954 0.0161121 0)
(-0.0258741 0.0239572 0)
(-0.0493309 0.0332352 0)
(-0.079403 0.0442255 0)
(-0.116187 0.0565867 0)
(-0.159015 0.0694426 0)
(-0.206432 0.0815697 0)
(-0.256397 0.0916391 0)
(-0.306627 0.098465 0)
(-0.354948 0.1012 0)
(-0.399552 0.0994225 0)
(-0.439106 0.0931194 0)
(-0.472734 0.0825927 0)
(-0.499914 0.0683433 0)
(-0.520346 0.050969 0)
(-0.533837 0.0310985 0)
(-0.540224 0.00936813 0)
(-0.539349 -0.0135606 0)
(-0.531027 -0.0369578 0)
(-0.515128 -0.0599769 0)
(-0.491627 -0.0816542 0)
(-0.460628 -0.100923 0)
(-0.422451 -0.116642 0)
(-0.377718 -0.127674 0)
(-0.327438 -0.133019 0)
(-0.273083 -0.131983 0)
(-0.216591 -0.124359 0)
(-0.160275 -0.110578 0)
(-0.106616 -0.0917521 0)
(-0.0579633 -0.0695806 0)
(-0.0161885 -0.0460663 0)
(0.0175135 -0.023124 0)
(0.0425518 -0.00249753 0)
(0.0588651 0.0145762 0)
(0.066712 0.0271732 0)
(0.0672036 0.0349178 0)
(0.0618948 0.038151 0)
(0.0525751 0.0377764 0)
(0.0410359 0.0349293 0)
(0.0288286 0.0305673 0)
(0.0171884 0.0250326 0)
(0.00742092 0.0177415 0)
(0.000862082 0.00736695 0)
(0.000999739 -0.0110188 0)
(0.00560965 -0.0208274 0)
(0.00922523 -0.0203455 0)
(0.00967088 -0.0128966 0)
(0.00560853 -0.00192838 0)
(-0.00348075 0.0101365 0)
(-0.018062 0.0223981 0)
(-0.0388912 0.0353005 0)
(-0.0669023 0.0497834 0)
(-0.102747 0.066372 0)
(-0.146321 0.0846927 0)
(-0.19655 0.103514 0)
(-0.251492 0.121105 0)
(-0.308698 0.13567 0)
(-0.365664 0.145725 0)
(-0.420209 0.150319 0)
(-0.47069 0.149086 0)
(-0.516023 0.142151 0)
(-0.55558 0.12997 0)
(-0.589036 0.113164 0)
(-0.616236 0.0924026 0)
(-0.637094 0.0683475 0)
(-0.651546 0.0416343 0)
(-0.659514 0.0128898 0)
(-0.660895 -0.0172331 0)
(-0.655557 -0.0480063 0)
(-0.643284 -0.0785738 0)
(-0.623798 -0.107926 0)
(-0.596811 -0.134881 0)
(-0.56209 -0.158082 0)
(-0.519584 -0.176056 0)
(-0.469584 -0.187339 0)
(-0.4129 -0.190672 0)
(-0.351013 -0.185281 0)
(-0.286124 -0.171148 0)
(-0.221066 -0.149203 0)
(-0.159008 -0.121335 0)
(-0.102954 -0.0901473 0)
(-0.0551914 -0.0584939 0)
(-0.0169107 -0.028894 0)
(0.0117616 -0.00312398 0)
(0.0312059 0.0176137 0)
(0.0419751 0.0326487 0)
(0.0452729 0.0418265 0)
(0.0426188 0.0456849 0)
(0.0357388 0.0452918 0)
(0.026396 0.0417564 0)
(0.0162487 0.0355993 0)
(0.00710897 0.026158 0)
(0.000796381 0.0113837 0)
(0.000995561 -0.013923 0)
(0.00415943 -0.0242919 0)
(0.0045749 -0.0208721 0)
(0.000385125 -0.0087167 0)
(-0.00948287 0.00767253 0)
(-0.0255918 0.0256145 0)
(-0.0486852 0.0445084 0)
(-0.0797433 0.0650274 0)
(-0.119479 0.0878274 0)
(-0.167709 0.112594 0)
(-0.223086 0.13787 0)
(-0.283306 0.161503 0)
(-0.3456 0.181271 0)
(-0.407276 0.195397 0)
(-0.466112 0.202812 0)
(-0.520527 0.203172 0)
(-0.569545 0.1967 0)
(-0.612662 0.183977 0)
(-0.649684 0.165749 0)
(-0.680614 0.142795 0)
(-0.705577 0.115872 0)
(-0.724772 0.0856788 0)
(-0.738422 0.0528655 0)
(-0.746722 0.0180397 0)
(-0.749779 -0.0182075 0)
(-0.747594 -0.0552634 0)
(-0.739967 -0.0924219 0)
(-0.726466 -0.1288 0)
(-0.706475 -0.16329 0)
(-0.679224 -0.194508 0)
(-0.643915 -0.22079 0)
(-0.599903 -0.240263 0)
(-0.546948 -0.251034 0)
(-0.485494 -0.251505 0)
(-0.416949 -0.240756 0)
(-0.34385 -0.218938 0)
(-0.269773 -0.18756 0)
(-0.198905 -0.149477 0)
(-0.135297 -0.10846 0)
(-0.0819537 -0.0683874 0)
(-0.0401681 -0.0323805 0)
(-0.00956594 -0.00230481 0)
(0.0110198 0.0211068 0)
(0.0227801 0.0375733 0)
(0.0271432 0.0473101 0)
(0.0257726 0.0510985 0)
(0.0204585 0.0499325 0)
(0.0130743 0.0443167 0)
(0.00574775 0.0334764 0)
(0.000590837 0.0148941 0)
(0.000839485 -0.0158628 0)
(0.00148027 -0.0247637 0)
(-0.0026041 -0.0166834 0)
(-0.0127002 0.0014651 0)
(-0.0295924 0.0244236 0)
(-0.0539555 0.0495959 0)
(-0.0866892 0.0766736 0)
(-0.128552 0.10612 0)
(-0.179417 0.137685 0)
(-0.237853 0.169822 0)
(-0.301333 0.200048 0)
(-0.366823 0.225732 0)
(-0.431409 0.244756 0)
(-0.492727 0.255863 0)
(-0.549122 0.25866 0)
(-0.599599 0.25343 0)
(-0.643683 0.240877 0)
(-0.681277 0.221915 0)
(-0.712561 0.197517 0)
(-0.737924 0.16863 0)
(-0.757893 0.136121 0)
(-0.77306 0.100744 0)
(-0.784001 0.0631309 0)
(-0.791197 0.0238035 0)
(-0.794973 -0.0167989 0)
(-0.795476 -0.058272 0)
(-0.792617 -0.100175 0)
(-0.785954 -0.141911 0)
(-0.774733 -0.182648 0)
(-0.757868 -0.221206 0)
(-0.734008 -0.255977 0)
(-0.701653 -0.284925 0)
(-0.659382 -0.305694 0)
(-0.606222 -0.315848 0)
(-0.542102 -0.313271 0)
(-0.468291 -0.296735 0)
(-0.387686 -0.266494 0)
(-0.304776 -0.224695 0)
(-0.225095 -0.175352 0)
(-0.154115 -0.123698 0)
(-0.0958389 -0.0749249 0)
(-0.051729 -0.0328308 0)
(-0.0207733 0.000829128 0)
(-0.000764437 0.0259173 0)
(0.0102936 0.0427659 0)
(0.0143034 0.0519968 0)
(0.0132007 0.0544066 0)
(0.00900921 0.050348 0)
(0.00399914 0.038924 0)
(0.000362067 0.0174913 0)
(0.000464427 -0.0160934 0)
(-0.00257817 -0.0209628 0)
(-0.012295 -0.00660183 0)
(-0.0292495 0.0186788 0)
(-0.0539721 0.0492963 0)
(-0.0872145 0.0829068 0)
(-0.1297 0.119158 0)
(-0.181435 0.157701 0)
(-0.241095 0.196982 0)
(-0.306089 0.23429 0)
(-0.373181 0.266576 0)
(-0.439203 0.291301 0)
(-0.50155 0.306905 0)
(-0.558381 0.312853 0)
(-0.608584 0.309437 0)
(-0.651653 0.297491 0)
(-0.687563 0.278142 0)
(-0.716675 0.252636 0)
(-0.739641 0.222205 0)
(-0.757306 0.187975 0)
(-0.770595 0.150898 0)
(-0.780411 0.111719 0)
(-0.787556 0.070975 0)
(-0.792663 0.0290278 0)
(-0.796193 -0.0138846 0)
(-0.798411 -0.0575933 0)
(-0.79936 -0.101957 0)
(-0.798731 -0.146742 0)
(-0.795893 -0.191503 0)
(-0.789807 -0.23545 0)
(-0.778978 -0.277324 0)
(-0.761454 -0.315308 0)
(-0.734957 -0.346971 0)
(-0.697196 -0.369349 0)
(-0.646336 -0.379259 0)
(-0.581624 -0.373875 0)
(-0.504067 -0.351489 0)
(-0.416945 -0.312346 0)
(-0.325833 -0.259267 0)
(-0.237889 -0.197679 0)
(-0.160305 -0.134662 0)
(-0.0982651 -0.0770601 0)
(-0.053336 -0.0294212 0)
(-0.023596 0.00683338 0)
(-0.00557355 0.032421 0)
(0.00360504 0.0482729 0)
(0.00645199 0.0552334 0)
(0.00528579 0.0535779 0)
(0.00248615 0.0423705 0)
(0.000209123 0.0191548 0)
(-0.000172756 -0.0137805 0)
(-0.00797098 -0.0118157 0)
(-0.0241321 0.0102222 0)
(-0.0484536 0.0435293 0)
(-0.0812531 0.0826684 0)
(-0.123166 0.125421 0)
(-0.17433 0.170858 0)
(-0.23367 0.217379 0)
(-0.29872 0.262132 0)
(-0.366142 0.301665 0)
(-0.432518 0.332916 0)
(-0.49494 0.353874 0)
(-0.551295 0.363737 0)
(-0.600284 0.362729 0)
(-0.641329 0.351796 0)
(-0.674461 0.332313 0)
(-0.70021 0.305856 0)
(-0.719484 0.274014 0)
(-0.733412 0.23824 0)
(-0.74319 0.19975 0)
(-0.749954 0.159465 0)
(-0.754696 0.118015 0)
(-0.758211 0.0757682 0)
(-0.7611 0.0328939 0)
(-0.763815 -0.0105623 0)
(-0.766665 -0.0546357 0)
(-0.769767 -0.0994241 0)
(-0.773039 -0.14499 0)
(-0.776165 -0.191254 0)
(-0.778471 -0.237897 0)
(-0.778779 -0.284226 0)
(-0.775292 -0.328982 0)
(-0.765557 -0.370138 0)
(-0.746566 -0.404799 0)
(-0.715066 -0.42929 0)
(-0.668193 -0.439521 0)
(-0.604369 -0.431697 0)
(-0.524277 -0.403386 0)
(-0.4316 -0.354742 0)
(-0.333156 -0.28942 0)
(-0.237988 -0.214627 0)
(-0.15524 -0.139771 0)
(-0.0912682 -0.0736738 0)
(-0.0474187 -0.0215749 0)
(-0.0204416 0.0157729 0)
(-0.00548109 0.0400903 0)
(0.00119903 0.0527613 0)
(0.00267077 0.0543747 0)
(0.0016048 0.0441938 0)
(0.000183861 0.0201651 0)
(-0.00107363 -0.00815636 0)
(-0.0144218 0.00342604 0)
(-0.0373779 0.0341672 0)
(-0.0690575 0.0760729 0)
(-0.109516 0.124163 0)
(-0.159006 0.175977 0)
(-0.216783 0.229541 0)
(-0.280687 0.281894 0)
(-0.347444 0.329223 0)
(-0.41344 0.367859 0)
(-0.475449 0.395175 0)
(-0.531027 0.409924 0)
(-0.578628 0.412143 0)
(-0.617557 0.402833 0)
(-0.64787 0.38362 0)
(-0.670255 0.356448 0)
(-0.685858 0.323317 0)
(-0.696077 0.286067 0)
(-0.702345 0.246217 0)
(-0.705965 0.204895 0)
(-0.708013 0.162843 0)
(-0.709315 0.120475 0)
(-0.710456 0.0779537 0)
(-0.711841 0.0352759 0)
(-0.713778 -0.00765637 0)
(-0.716516 -0.051003 0)
(-0.720189 -0.0949652 0)
(-0.724912 -0.139744 0)
(-0.730706 -0.185501 0)
(-0.737383 -0.232316 0)
(-0.744388 -0.280062 0)
(-0.75061 -0.328197 0)
(-0.754159 -0.375501 0)
(-0.752197 -0.419806 0)
(-0.740978 -0.457771 0)
(-0.716238 -0.484873 0)
(-0.673991 -0.495837 0)
(-0.611702 -0.485616 0)
(-0.529646 -0.450879 0)
(-0.432017 -0.39169 0)
(-0.327141 -0.312834 0)
(-0.226237 -0.223895 0)
(-0.140494 -0.13723 0)
(-0.0771329 -0.0638649 0)
(-0.036604 -0.00934541 0)
(-0.0137903 0.0267772 0)
(-0.00263219 0.0471282 0)
(0.00130049 0.0532357 0)
(0.00144591 0.0450097 0)
(0.000288162 0.0209422 0)
(-0.00218078 0.00132569 0)
(-0.0214319 0.0250498 0)
(-0.0510303 0.0650942 0)
(-0.0895113 0.115777 0)
(-0.13656 0.172645 0)
(-0.191819 0.232589 0)
(-0.253587 0.292353 0)
(-0.318859 0.347813 0)
(-0.383964 0.394662 0)
(-0.445385 0.429483 0)
(-0.500317 0.450371 0)
(-0.546906 0.456984 0)
(-0.584271 0.450263 0)
(-0.61244 0.432037 0)
(-0.632215 0.404632 0)
(-0.644956 0.37051 0)
(-0.652315 0.331951 0)
(-0.655952 0.290828 0)
(-0.657318 0.248498 0)
(-0.657541 0.205819 0)
(-0.657407 0.163235 0)
(-0.657411 0.120896 0)
(-0.657828 0.0787731 0)
(-0.6588 0.0367418 0)
(-0.660437 -0.00536685 0)
(-0.662878 -0.0477335 0)
(-0.666227 -0.0905369 0)
(-0.670675 -0.133969 0)
(-0.676441 -0.178263 0)
(-0.683718 -0.223684 0)
(-0.692573 -0.270471 0)
(-0.702747 -0.318708 0)
(-0.713358 -0.368108 0)
(-0.722555 -0.417637 0)
(-0.727241 -0.465048 0)
(-0.723016 -0.506481 0)
(-0.704544 -0.536393 0)
(-0.666558 -0.548068 0)
(-0.60547 -0.534896 0)
(-0.52123 -0.492448 0)
(-0.418796 -0.420878 0)
(-0.30839 -0.326746 0)
(-0.203735 -0.222928 0)
(-0.117986 -0.125444 0)
(-0.0584677 -0.0474158 0)
(-0.0236535 0.00621115 0)
(-0.00619537 0.0377367 0)
(0.000676289 0.050373 0)
(0.00180885 0.0453441 0)
(0.000485735 0.0218693 0)
(-0.00335881 0.0148985 0)
(-0.0283544 0.0528533 0)
(-0.0639697 0.102377 0)
(-0.108206 0.161556 0)
(-0.16027 0.226394 0)
(-0.219086 0.292831 0)
(-0.282132 0.356355 0)
(-0.34589 0.412041 0)
(-0.406658 0.455557 0)
(-0.461272 0.484084 0)
(-0.507505 0.496639 0)
(-0.544205 0.493895 0)
(-0.571275 0.477769 0)
(-0.589546 0.450937 0)
(-0.60054 0.416354 0)
(-0.606135 0.376811 0)
(-0.608212 0.334602 0)
(-0.608376 0.291369 0)
(-0.607811 0.2481 0)
(-0.607266 0.205262 0)
(-0.60713 0.162964 0)
(-0.607543 0.121122 0)
(-0.608504 0.0795724 0)
(-0.609948 0.0381371 0)
(-0.611829 -0.00334939 0)
(-0.614193 -0.0450159 0)
(-0.617098 -0.0869639 0)
(-0.620687 -0.129301 0)
(-0.625206 -0.172189 0)
(-0.630991 -0.215865 0)
(-0.638445 -0.260659 0)
(-0.647922 -0.306986 0)
(-0.659506 -0.355235 0)
(-0.672665 -0.405463 0)
(-0.685766 -0.456894 0)
(-0.695564 -0.507255 0)
(-0.696986 -0.552134 0)
(-0.68354 -0.584729 0)
(-0.6486 -0.596463 0)
(-0.587523 -0.578815 0)
(-0.500131 -0.52624 0)
(-0.392632 -0.439506 0)
(-0.27777 -0.328033 0)
(-0.172108 -0.209294 0)
(-0.0903 -0.1036 0)
(-0.0383301 -0.0253045 0)
(-0.0113438 0.0228819 0)
(-0.000158435 0.0453468 0)
(0.00229554 0.0453408 0)
(0.000720465 0.0231511 0)
(-0.00444379 0.0324092 0)
(-0.0345368 0.0861712 0)
(-0.0751392 0.144959 0)
(-0.123716 0.211903 0)
(-0.17893 0.28337 0)
(-0.239027 0.354227 0)
(-0.300901 0.418916 0)
(-0.360859 0.472131 0)
(-0.415438 0.5099 0)
(-0.462003 0.530265 0)
(-0.499026 0.53332 0)
(-0.526155 0.520848 0)
(-0.544128 0.495765 0)
(-0.554527 0.461512 0)
(-0.559401 0.421458 0)
(-0.560837 0.378422 0)
(-0.560609 0.334415 0)
(-0.559985 0.290619 0)
(-0.559701 0.247542 0)
(-0.560068 0.205248 0)
(-0.561115 0.163575 0)
(-0.56273 0.122293 0)
(-0.564755 0.0811852 0)
(-0.567036 0.040085 0)
(-0.569467 -0.00112398 0)
(-0.572051 -0.0425034 0)
(-0.57481 -0.0840834 0)
(-0.5778 -0.125884 0)
(-0.581183 -0.16795 0)
(-0.585226 -0.210386 0)
(-0.590332 -0.253416 0)
(-0.597039 -0.297446 0)
(-0.605961 -0.343076 0)
(-0.617578 -0.391008 0)
(-0.631793 -0.441722 0)
(-0.647255 -0.494819 0)
(-0.660626 -0.548027 0)
(-0.666159 -0.596191 0)
(-0.656096 -0.630854 0)
(-0.622334 -0.641116 0)
(-0.559287 -0.616228 0)
(-0.467162 -0.549744 0)
(-0.35426 -0.4441 0)
(-0.236649 -0.313373 0)
(-0.133887 -0.18128 0)
(-0.0609113 -0.0724521 0)
(-0.0200629 -0.000228406 0)
(-0.00227313 0.0369207 0)
(0.0024677 0.0446145 0)
(0.000939732 0.0247482 0)
(-0.00528746 0.0532954 0)
(-0.0394184 0.123944 0)
(-0.0836814 0.191465 0)
(-0.134974 0.265084 0)
(-0.191421 0.341498 0)
(-0.250721 0.414552 0)
(-0.309457 0.477953 0)
(-0.364034 0.526406 0)
(-0.411424 0.556612 0)
(-0.449639 0.567671 0)
(-0.477929 0.560874 0)
(-0.496772 0.539149 0)
(-0.507665 0.506337 0)
(-0.512735 0.466423 0)
(-0.514244 0.422867 0)
(-0.514148 0.378189 0)
(-0.513836 0.333874 0)
(-0.51408 0.290535 0)
(-0.515149 0.248211 0)
(-0.516996 0.206661 0)
(-0.519425 0.165573 0)
(-0.522224 0.124675 0)
(-0.525207 0.083779 0)
(-0.528236 0.0427661 0)
(-0.531223 0.00157741 0)
(-0.534172 -0.0398014 0)
(-0.537101 -0.0813583 0)
(-0.540001 -0.123066 0)
(-0.542931 -0.164892 0)
(-0.546005 -0.206823 0)
(-0.549443 -0.248916 0)
(-0.55364 -0.291371 0)
(-0.55922 -0.334629 0)
(-0.56702 -0.379463 0)
(-0.577889 -0.42694 0)
(-0.592192 -0.478042 0)
(-0.608931 -0.532782 0)
(-0.62467 -0.588811 0)
(-0.632829 -0.639941 0)
(-0.624179 -0.675493 0)
(-0.589118 -0.681593 0)
(-0.521494 -0.645051 0)
(-0.42279 -0.559303 0)
(-0.304615 -0.43044 0)
(-0.187269 -0.279814 0)
(-0.0928347 -0.138966 0)
(-0.0339658 -0.0352102 0)
(-0.0065077 0.0231496 0)
(0.00200989 0.0422953 0)
(0.00111607 0.0264101 0)
(-0.00576858 0.076651 0)
(-0.0425873 0.16484 0)
(-0.0890233 0.240351 0)
(-0.141366 0.319327 0)
(-0.197264 0.398879 0)
(-0.254052 0.472008 0)
(-0.308254 0.532021 0)
(-0.356576 0.573971 0)
(-0.396544 0.595473 0)
(-0.426887 0.59683 0)
(-0.447645 0.58059 0)
(-0.460044 0.550769 0)
(-0.466142 0.511928 0)
(-0.468307 0.468273 0)
(-0.468684 0.423012 0)
(-0.468833 0.378103 0)
(-0.469621 0.334382 0)
(-0.471329 0.291922 0)
(-0.473868 0.250413 0)
(-0.476987 0.209457 0)
(-0.480428 0.168718 0)
(-0.483991 0.127971 0)
(-0.487555 0.0870936 0)
(-0.491042 0.0460257 0)
(-0.494416 0.00474964 0)
(-0.497709 -0.0367272 0)
(-0.500948 -0.0783816 0)
(-0.504102 -0.120185 0)
(-0.507164 -0.162083 0)
(-0.510129 -0.204015 0)
(-0.513035 -0.24592 0)
(-0.516023 -0.287792 0)
(-0.519432 -0.329782 0)
(-0.523909 -0.372359 0)
(-0.530464 -0.416473 0)
(-0.540318 -0.463575 0)
(-0.554318 -0.515208 0)
(-0.571778 -0.571835 0)
(-0.589008 -0.630842 0)
(-0.598329 -0.68441 0)
(-0.588793 -0.718742 0)
(-0.54937 -0.716291 0)
(-0.474105 -0.66163 0)
(-0.367227 -0.549841 0)
(-0.245267 -0.393977 0)
(-0.13332 -0.226063 0)
(-0.0540373 -0.085845 0)
(-0.0133534 0.00161739 0)
(0.000770486 0.0372032 0)
(0.00125335 0.0277782 0)
(-0.00581174 0.101342 0)
(-0.0438115 0.207377 0)
(-0.090902 0.290039 0)
(-0.142725 0.372982 0)
(-0.196553 0.453933 0)
(-0.24955 0.525297 0)
(-0.298382 0.580302 0)
(-0.340186 0.614618 0)
(-0.373111 0.626949 0)
(-0.396603 0.618886 0)
(-0.411411 0.594204 0)
(-0.419333 0.557841 0)
(-0.422715 0.514779 0)
(-0.423857 0.469099 0)
(-0.424536 0.42347 0)
(-0.42579 0.379148 0)
(-0.427981 0.336348 0)
(-0.431024 0.294732 0)
(-0.434639 0.253806 0)
(-0.438529 0.213155 0)
(-0.442479 0.172509 0)
(-0.446371 0.131732 0)
(-0.450164 0.0907684 0)
(-0.453847 0.0496055 0)
(-0.457426 0.00824443 0)
(-0.46096 -0.0333054 0)
(-0.464489 -0.0750298 0)
(-0.467987 -0.116921 0)
(-0.471427 -0.158945 0)
(-0.474758 -0.201046 0)
(-0.477919 -0.243133 0)
(-0.480864 -0.285098 0)
(-0.483631 -0.326872 0)
(-0.486477 -0.368548 0)
(-0.490049 -0.410602 0)
(-0.495518 -0.454172 0)
(-0.504467 -0.501172 0)
(-0.518196 -0.553802 0)
(-0.536233 -0.612906 0)
(-0.554329 -0.675139 0)
(-0.563223 -0.730072 0)
(-0.549936 -0.759574 0)
(-0.502435 -0.74179 0)
(-0.41641 -0.660172 0)
(-0.300976 -0.51495 0)
(-0.179274 -0.331173 0)
(-0.0805015 -0.154848 0)
(-0.0231575 -0.0304741 0)
(-0.00128388 0.0280069 0)
(0.00137098 0.0284756 0)
(-0.0053938 0.126126 0)
(-0.0430353 0.250047 0)
(-0.0893372 0.33904 0)
(-0.13926 0.424627 0)
(-0.18982 0.505453 0)
(-0.238179 0.57361 0)
(-0.281288 0.622522 0)
(-0.316791 0.648674 0)
(-0.34346 0.651967 0)
(-0.361391 0.635286 0)
(-0.371892 0.603515 0)
(-0.377093 0.562261 0)
(-0.379349 0.516597 0)
(-0.380659 0.470178 0)
(-0.382307 0.424968 0)
(-0.384824 0.381526 0)
(-0.388196 0.339569 0)
(-0.392138 0.298524 0)
(-0.396329 0.257866 0)
(-0.400531 0.217254 0)
(-0.40462 0.176524 0)
(-0.408565 0.135623 0)
(-0.412392 0.094549 0)
(-0.41613 0.0533113 0)
(-0.419803 0.0119129 0)
(-0.423485 -0.0296467 0)
(-0.427225 -0.0713676 0)
(-0.431008 -0.113266 0)
(-0.434811 -0.155338 0)
(-0.438591 -0.197558 0)
(-0.442269 -0.239865 0)
(-0.445727 -0.282151 0)
(-0.448842 -0.324264 0)
(-0.451557 -0.366059 0)
(-0.454043 -0.407557 0)
(-0.456941 -0.449258 0)
(-0.461592 -0.492555 0)
(-0.469965 -0.539949 0)
(-0.483791 -0.594382 0)
(-0.502554 -0.656877 0)
(-0.520867 -0.722483 0)
(-0.527222 -0.776556 0)
(-0.506484 -0.795075 0)
(-0.446696 -0.751906 0)
(-0.347586 -0.632407 0)
(-0.225898 -0.448088 0)
(-0.112306 -0.242525 0)
(-0.0363963 -0.0761196 0)
(-0.00422687 0.0132063 0)
(0.00146041 0.0280927 0)
(-0.00453957 0.149764 0)
(-0.0403516 0.291416 0)
(-0.0845716 0.386033 0)
(-0.131456 0.473118 0)
(-0.177877 0.552605 0)
(-0.221128 0.616562 0)
(-0.258539 0.65882 0)
(-0.288276 0.676812 0)
(-0.309682 0.671672 0)
(-0.323376 0.647504 0)
(-0.331029 0.610106 0)
(-0.33486 0.565467 0)
(-0.337016 0.518453 0)
(-0.339061 0.472097 0)
(-0.341791 0.427622 0)
(-0.345344 0.384995 0)
(-0.349485 0.343612 0)
(-0.353879 0.30282 0)
(-0.358262 0.262166 0)
(-0.362492 0.221425 0)
(-0.366536 0.180531 0)
(-0.37043 0.139492 0)
(-0.374233 0.0983305 0)
(-0.37799 0.0570597 0)
(-0.381724 0.0156732 0)
(-0.385505 -0.0258427 0)
(-0.389391 -0.0675003 0)
(-0.393373 -0.109334 0)
(-0.397436 -0.151361 0)
(-0.401559 -0.19359 0)
(-0.405684 -0.236005 0)
(-0.409712 -0.278545 0)
(-0.413486 -0.321083 0)
(-0.416816 -0.363416 0)
(-0.419555 -0.40532 0)
(-0.421799 -0.44675 0)
(-0.424213 -0.488269 0)
(-0.428371 -0.531654 0)
(-0.436679 -0.580204 0)
(-0.451194 -0.637691 0)
(-0.470885 -0.704758 0)
(-0.488348 -0.773202 0)
(-0.48906 -0.821802 0)
(-0.456131 -0.819214 0)
(-0.379961 -0.736826 0)
(-0.267874 -0.568317 0)
(-0.146884 -0.345926 0)
(-0.0533852 -0.137531 0)
(-0.00822397 -0.00883063 0)
(0.00147364 0.0261739 0)
(-0.00331173 0.171114 0)
(-0.0359627 0.330186 0)
(-0.0769983 0.429908 0)
(-0.119957 0.517596 0)
(-0.161666 0.594887 0)
(-0.199643 0.654095 0)
(-0.231635 0.689613 0)
(-0.256305 0.69988 0)
(-0.273473 0.687228 0)
(-0.284119 0.65684 0)
(-0.290071 0.615197 0)
(-0.293437 0.568391 0)
(-0.296015 0.520868 0)
(-0.298921 0.47496 0)
(-0.302544 0.431218 0)
(-0.306774 0.389172 0)
(-0.311296 0.348061 0)
(-0.315819 0.30727 0)
(-0.320173 0.266461 0)
(-0.324311 0.225523 0)
(-0.328265 0.184461 0)
(-0.332101 0.143313 0)
(-0.335893 0.102106 0)
(-0.339682 0.0608433 0)
(-0.343483 0.0195054 0)
(-0.34735 -0.0219341 0)
(-0.35135 -0.0634949 0)
(-0.355478 -0.105223 0)
(-0.359717 -0.14715 0)
(-0.364064 -0.189305 0)
(-0.36849 -0.231706 0)
(-0.372933 -0.274346 0)
(-0.377277 -0.317163 0)
(-0.381336 -0.36001 0)
(-0.384856 -0.402624 0)
(-0.387616 -0.444691 0)
(-0.389665 -0.486115 0)
(-0.391759 -0.527624 0)
(-0.395808 -0.571627 0)
(-0.404726 -0.622531 0)
(-0.420668 -0.684851 0)
(-0.441232 -0.757577 0)
(-0.455734 -0.826441 0)
(-0.446153 -0.860619 0)
(-0.395544 -0.821287 0)
(-0.300651 -0.683016 0)
(-0.180694 -0.459382 0)
(-0.0735762 -0.215063 0)
(-0.0135212 -0.0398876 0)
(0.00138909 0.0222386 0)
(-0.00179927 0.189195 0)
(-0.0301401 0.365242 0)
(-0.067091 0.469784 0)
(-0.105475 0.557464 0)
(-0.142143 0.632061 0)
(-0.174891 0.686377 0)
(-0.201889 0.715461 0)
(-0.222233 0.71875 0)
(-0.236095 0.699675 0)
(-0.244654 0.66432 0)
(-0.249708 0.61961 0)
(-0.253117 0.571528 0)
(-0.256284 0.523977 0)
(-0.259924 0.478609 0)
(-0.264144 0.435433 0)
(-0.268715 0.393702 0)
(-0.273337 0.352624 0)
(-0.277804 0.311678 0)
(-0.282038 0.27065 0)
(-0.286061 0.229517 0)
(-0.289937 0.188322 0)
(-0.293743 0.14711 0)
(-0.297548 0.1059 0)
(-0.301388 0.064679 0)
(-0.305264 0.0234152 0)
(-0.309217 -0.0179282 0)
(-0.313322 -0.0593748 0)
(-0.317577 -0.10098 0)
(-0.321958 -0.142782 0)
(-0.326468 -0.184821 0)
(-0.331094 -0.227135 0)
(-0.335807 -0.269752 0)
(-0.340539 -0.312672 0)
(-0.345161 -0.355832 0)
(-0.349453 -0.399048 0)
(-0.353109 -0.441981 0)
(-0.35584 -0.484217 0)
(-0.357698 -0.525656 0)
(-0.359647 -0.567398 0)
(-0.364109 -0.612897 0)
(-0.374532 -0.66803 0)
(-0.392594 -0.737468 0)
(-0.413098 -0.81587 0)
(-0.420674 -0.878536 0)
(-0.394451 -0.882342 0)
(-0.32134 -0.784684 0)
(-0.210171 -0.575838 0)
(-0.095373 -0.306677 0)
(-0.0203426 -0.0816391 0)
(0.00124899 0.0158034 0)
(-0.000106376 0.203233 0)
(-0.0231903 0.39566 0)
(-0.0553474 0.504985 0)
(-0.0887089 0.592346 0)
(-0.120195 0.664079 0)
(-0.147891 0.713706 0)
(-0.17037 0.736962 0)
(-0.187078 0.734217 0)
(-0.19841 0.709858 0)
(-0.205586 0.670675 0)
(-0.210241 0.623832 0)
(-0.213909 0.575058 0)
(-0.217613 0.527692 0)
(-0.22176 0.48279 0)
(-0.22629 0.439964 0)
(-0.230948 0.398327 0)
(-0.235499 0.357126 0)
(-0.239824 0.315959 0)
(-0.243917 0.274714 0)
(-0.247835 0.233421 0)
(-0.251656 0.192141 0)
(-0.255451 0.150909 0)
(-0.25928 0.109729 0)
(-0.263175 0.0685769 0)
(-0.267127 0.0274079 0)
(-0.271163 -0.0138231 0)
(-0.275371 -0.0551412 0)
(-0.279754 -0.096612 0)
(-0.284274 -0.138277 0)
(-0.288935 -0.180182 0)
(-0.293731 -0.222375 0)
(-0.298646 -0.264903 0)
(-0.303646 -0.307805 0)
(-0.308656 -0.351086 0)
(-0.31353 -0.394666 0)
(-0.318009 -0.438307 0)
(-0.321727 -0.481563 0)
(-0.324357 -0.523917 0)
(-0.326037 -0.565386 0)
(-0.32813 -0.607831 0)
(-0.333779 -0.656394 0)
(-0.346796 -0.718612 0)
(-0.367167 -0.797397 0)
(-0.384814 -0.87806 0)
(-0.378939 -0.919986 0)
(-0.329007 -0.868212 0)
(-0.232565 -0.688282 0)
(-0.116622 -0.408384 0)
(-0.0286883 -0.135232 0)
(0.00111564 0.00635731 0)
(0.00165727 0.212668 0)
(-0.0154299 0.420709 0)
(-0.0422498 0.535023 0)
(-0.0703034 0.622034 0)
(-0.0965926 0.691022 0)
(-0.119478 0.736433 0)
(-0.137896 0.754677 0)
(-0.151552 0.746943 0)
(-0.160946 0.718406 0)
(-0.167212 0.676372 0)
(-0.17173 0.62809 0)
(-0.175685 0.578971 0)
(-0.179775 0.531828 0)
(-0.184191 0.487248 0)
(-0.188799 0.444577 0)
(-0.193376 0.40288 0)
(-0.197764 0.361482 0)
(-0.201914 0.320088 0)
(-0.205866 0.278657 0)
(-0.209692 0.237252 0)
(-0.213466 0.195932 0)
(-0.21725 0.154716 0)
(-0.221097 0.113594 0)
(-0.225037 0.0725326 0)
(-0.229057 0.0314792 0)
(-0.233166 -0.00962011 0)
(-0.237471 -0.0507907 0)
(-0.241989 -0.0921105 0)
(-0.24666 -0.133624 0)
(-0.251487 -0.175383 0)
(-0.256464 -0.217439 0)
(-0.261578 -0.259848 0)
(-0.266811 -0.302667 0)
(-0.27212 -0.345945 0)
(-0.27742 -0.389685 0)
(-0.282535 -0.433771 0)
(-0.287156 -0.47787 0)
(-0.290861 -0.521393 0)
(-0.293321 -0.563752 0)
(-0.294917 -0.605366 0)
(-0.29769 -0.649563 0)
(-0.305682 -0.703987 0)
(-0.32234 -0.777116 0)
(-0.343688 -0.865427 0)
(-0.352562 -0.936943 0)
(-0.324459 -0.931208 0)
(-0.246359 -0.790853 0)
(-0.135271 -0.515143 0)
(-0.0381683 -0.200441 0)
(0.000966944 -0.00656834 0)
(0.00338576 0.217192 0)
(-0.00716765 0.439804 0)
(-0.0282468 0.559552 0)
(-0.050821 0.646441 0)
(-0.0719743 0.713034 0)
(-0.090302 0.754902 0)
(-0.105054 0.769083 0)
(-0.116117 0.757438 0)
(-0.12399 0.725749 0)
(-0.129628 0.681674 0)
(-0.134107 0.632447 0)
(-0.138278 0.583157 0)
(-0.142575 0.536185 0)
(-0.147057 0.491773 0)
(-0.151576 0.449108 0)
(-0.155967 0.407265 0)
(-0.160142 0.365651 0)
(-0.164105 0.324055 0)
(-0.167914 0.282486 0)
(-0.171646 0.241014 0)
(-0.175366 0.19969 0)
(-0.179125 0.158519 0)
(-0.18297 0.117478 0)
(-0.186938 0.0765303 0)
(-0.191011 0.0356169 0)
(-0.195177 -0.00532444 0)
(-0.199572 -0.0463218 0)
(-0.20423 -0.0874655 0)
(-0.209065 -0.128808 0)
(-0.21408 -0.170402 0)
(-0.219263 -0.212304 0)
(-0.224605 -0.254573 0)
(-0.230088 -0.297275 0)
(-0.235687 -0.340482 0)
(-0.241351 -0.38425 0)
(-0.246969 -0.428559 0)
(-0.252323 -0.473222 0)
(-0.257044 -0.517757 0)
(-0.260658 -0.561397 0)
(-0.262932 -0.603635 0)
(-0.264746 -0.645895 0)
(-0.269191 -0.694122 0)
(-0.281049 -0.758996 0)
(-0.301501 -0.846591 0)
(-0.319275 -0.937607 0)
(-0.309722 -0.973748 0)
(-0.251302 -0.879434 0)
(-0.14984 -0.621824 0)
(-0.0480529 -0.275505 0)
(0.000663029 -0.0234174 0)
(0.00493764 0.216617 0)
(0.00129123 0.452604 0)
(-0.0137375 0.578317 0)
(-0.0307424 0.665553 0)
(-0.0468534 0.730281 0)
(-0.0608493 0.769412 0)
(-0.0722449 0.78055 0)
(-0.0810395 0.76606 0)
(-0.0876559 0.732153 0)
(-0.09281 0.6867 0)
(-0.0972523 0.636871 0)
(-0.101527 0.58748 0)
(-0.105868 0.540586 0)
(-0.110257 0.496205 0)
(-0.114572 0.453449 0)
(-0.11871 0.411422 0)
(-0.122642 0.369608 0)
(-0.126403 0.327853 0)
(-0.13006 0.286191 0)
(-0.133683 0.244693 0)
(-0.137328 0.203398 0)
(-0.141039 0.162297 0)
(-0.14486 0.121361 0)
(-0.148833 0.0805494 0)
(-0.152944 0.0398059 0)
(-0.157149 -0.000940395 0)
(-0.161618 -0.0417349 0)
(-0.166418 -0.0826675 0)
(-0.17143 -0.123808 0)
(-0.176651 -0.165212 0)
(-0.182071 -0.206937 0)
(-0.187675 -0.249042 0)
(-0.193448 -0.2916 0)
(-0.19937 -0.334694 0)
(-0.205406 -0.378408 0)
(-0.211485 -0.422794 0)
(-0.217459 -0.46778 0)
(-0.223052 -0.513042 0)
(-0.227825 -0.55788 0)
(-0.231295 -0.601386 0)
(-0.233516 -0.643552 0)
(-0.236275 -0.687991 0)
(-0.244015 -0.744767 0)
(-0.261107 -0.826235 0)
(-0.282718 -0.926935 0)
(-0.287446 -0.99776 0)
(-0.248165 -0.951776 0)
(-0.159593 -0.723933 0)
(-0.0575105 -0.357665 0)
(-5.3684e-06 -0.0446145 0)
(0.00615817 0.211172 0)
(0.00958377 0.458666 0)
(0.000953827 0.591226 0)
(-0.0104676 0.679381 0)
(-0.0216358 0.742915 0)
(-0.0314756 0.780194 0)
(-0.039729 0.789336 0)
(-0.0464572 0.773036 0)
(-0.0519573 0.737758 0)
(-0.0566727 0.691476 0)
(-0.0610282 0.641286 0)
(-0.0652928 0.591805 0)
(-0.0695427 0.54489 0)
(-0.0737249 0.500433 0)
(-0.0777571 0.457526 0)
(-0.0815965 0.415314 0)
(-0.0852581 0.373333 0)
(-0.0887966 0.331466 0)
(-0.092279 0.289755 0)
(-0.0957673 0.248268 0)
(-0.0993109 0.20703 0)
(-0.102948 0.166026 0)