/*--------------------------------*- C++ -*----------------------------------*\
  =========                 |
  \\      /  F ield         | OpenFOAM: The Open Source CFD Toolbox
   \\    /   O peration     | Website:  https://openfoam.org
    \\  /    A nd           | Version:  7
     \\/     M anipulation  |
\*---------------------------------------------------------------------------*/
FoamFile
{
    version     2.0;
    format      ascii;
    class       volScalarField;
    location    "300";
    object      p;
}
// * * * * * * * * * * * * * * * * * * * * * * * * * * * * * * * * * * * * * //

dimensions      [0 2 -2 0 0 0 0];

internalField   nonuniform List<scalar> 
2500
(
1.29674e-06
-8.41571e-05
-0.000400843
-0.000945786
-0.00165522
-0.00248091
-0.00339141
-0.0043662
-0.00539113
-0.00645438
-0.00754306
-0.00864098
-0.00972732
-0.0107762
-0.0117567
-0.0126342
-0.0133712
-0.0139295
-0.0142729
-0.01437
-0.0141975
-0.013744
-0.0130128
-0.0120249
-0.0108204
-0.00945879
-0.00801736
-0.0065879
-0.00527149
-0.00417137
-0.00338484
-0.00299484
-0.00306215
-0.00361913
-0.00466601
-0.0061702
-0.00806878
-0.0102742
-0.0126824
-0.0151813
-0.0176592
-0.020013
-0.0221531
-0.0240067
-0.0255175
-0.0266459
-0.0273689
-0.0276824
-0.0276219
-0.0273767
8.72217e-05
-5.15428e-06
-0.000294731
-0.000782294
-0.00141591
-0.00215699
-0.00298041
-0.00386922
-0.00481116
-0.00579558
-0.00681082
-0.00784234
-0.00887159
-0.00987549
-0.0108265
-0.0116932
-0.0124415
-0.013036
-0.0134426
-0.0136307
-0.0135768
-0.0132677
-0.0127034
-0.0119002
-0.0108924
-0.00973298
-0.00849166
-0.00725299
-0.00611097
-0.00516236
-0.00449892
-0.00419917
-0.00432068
-0.00489398
-0.00591884
-0.00736368
-0.00916822
-0.0112489
-0.0135067
-0.0158365
-0.0181351
-0.0203084
-0.0222767
-0.0239774
-0.0253645
-0.0264082
-0.0270932
-0.0274135
-0.0273762
-0.0271302
0.000415652
0.000273673
-2.98315e-05
-0.000488981
-0.0010666
-0.00173613
-0.00248077
-0.0032894
-0.00415386
-0.00506657
-0.00601857
-0.00699805
-0.00798938
-0.00897255
-0.00992306
-0.0108122
-0.011608
-0.0122762
-0.0127826
-0.0130952
-0.0131878
-0.0130427
-0.012655
-0.0120347
-0.0112099
-0.0102274
-0.00915139
-0.00806164
-0.00704835
-0.00620563
-0.00562364
-0.0053802
-0.00553283
-0.00611236
-0.00711901
-0.00852173
-0.0102609
-0.0122541
-0.0144044
-0.0166094
-0.0187706
-0.0208002
-0.0226263
-0.0241955
-0.0254723
-0.0264364
-0.0270792
-0.0273906
-0.0273473
-0.027073
0.000996904
0.000761251
0.000397499
-7.20461e-05
-0.00062799
-0.00125667
-0.00195049
-0.0027058
-0.00352046
-0.00439175
-0.00531486
-0.00628162
-0.0072796
-0.00829153
-0.00929491
-0.0102621
-0.0111606
-0.0119547
-0.0126067
-0.01308
-0.0133424
-0.0133695
-0.0131494
-0.0126855
-0.0119998
-0.0111351
-0.0101527
-0.00913128
-0.00816185
-0.00734088
-0.00676211
-0.00650767
-0.00663941
-0.00719189
-0.00816788
-0.00953738
-0.0112402
-0.0131924
-0.0152946
-0.0174425
-0.0195369
-0.0214914
-0.0232377
-0.0247281
-0.0259342
-0.0268435
-0.0274523
-0.0277487
-0.0276927
-0.0273995
0.00176189
0.00139756
0.000939388
0.000432916
-0.000125196
-0.000736579
-0.00140416
-0.00213304
-0.00292838
-0.0037935
-0.00472863
-0.00572982
-0.00678801
-0.00788817
-0.00900874
-0.0101213
-0.0111909
-0.0121771
-0.0130361
-0.0137238
-0.014199
-0.0144289
-0.0143925
-0.0140856
-0.0135241
-0.0127473
-0.0118147
-0.0108057
-0.00981434
-0.00894228
-0.00829037
-0.0079489
-0.00798819
-0.00845054
-0.00934489
-0.010645
-0.0122919
-0.0142
-0.0162664
-0.0183825
-0.0204444
-0.0223633
-0.0240705
-0.0255206
-0.0266897
-0.0275703
-0.0281642
-0.0284611
-0.0284182
-0.0281429
0.00263305
0.00211488
0.0015391
0.000977692
0.000399232
-0.000216076
-0.000883163
-0.00161696
-0.00243077
-0.00333465
-0.00433439
-0.00543054
-0.00661718
-0.00788085
-0.00919954
-0.0105422
-0.0118687
-0.0131317
-0.0142781
-0.0152532
-0.016005
-0.0164892
-0.0166747
-0.0165478
-0.0161168
-0.0154172
-0.0145063
-0.0134643
-0.0123891
-0.0113892
-0.0105752
-0.0100493
-0.00989472
-0.0101668
-0.0108859
-0.0120346
-0.013559
-0.0153745
-0.017376
-0.0194495
-0.0214846
-0.0233861
-0.0250812
-0.0265226
-0.0276871
-0.0285702
-0.0291771
-0.029502
-0.0295073
-0.0292893
0.0035255
0.00283708
0.00212914
0.00150035
0.000885788
0.000244559
-0.000451746
-0.00122876
-0.00210852
-0.00310822
-0.00423949
-0.00550726
-0.0069083
-0.00842964
-0.0100472
-0.011725
-0.0134157
-0.0150615
-0.0165979
-0.0179568
-0.0190726
-0.0198874
-0.0203573
-0.0204569
-0.0201844
-0.0195692
-0.0186648
-0.0175506
-0.0163279
-0.015113
-0.0140282
-0.0131914
-0.0127042
-0.0126414
-0.0130424
-0.0139059
-0.0151899
-0.0168163
-0.0186807
-0.0206647
-0.0226504
-0.0245332
-0.0262311
-0.02769
-0.0288826
-0.0298035
-0.0304582
-0.0308446
-0.0309337
-0.0308069
0.00434378
0.00347622
0.00262836
0.00192356
0.00125796
0.000566749
-0.000193332
-0.00105938
-0.00206259
-0.00322758
-0.00457182
-0.00610433
-0.00782378
-0.00971639
-0.0117542
-0.0138943
-0.0160791
-0.0182386
-0.0202934
-0.0221598
-0.0237557
-0.0250066
-0.0258529
-0.0262542
-0.0261951
-0.0256941
-0.0247979
-0.0235825
-0.0221505
-0.0206252
-0.0191425
-0.0178392
-0.0168411
-0.0162507
-0.0161356
-0.0165212
-0.0173873
-0.0186709
-0.0202743
-0.0220783
-0.0239572
-0.0257942
-0.0274935
-0.028988
-0.0302393
-0.0312348
-0.0319759
-0.0324608
-0.0326678
-0.0326598
0.00498193
0.00393291
0.00294259
0.0021552
0.0014229
0.000654472
-0.000209442
-0.00121807
-0.00241216
-0.0038239
-0.00547652
-0.0073827
-0.00954204
-0.0119386
-0.0145386
-0.0172901
-0.0201231
-0.0229526
-0.025682
-0.028209
-0.0304319
-0.0322566
-0.0336035
-0.0344132
-0.0346519
-0.0343221
-0.0334588
-0.03213
-0.0304363
-0.028506
-0.0264879
-0.0245407
-0.0228197
-0.0214631
-0.0205782
-0.02023
-0.0204338
-0.0211542
-0.0223107
-0.0237895
-0.0254594
-0.0271898
-0.0288659
-0.0303998
-0.0317341
-0.0328398
-0.0337071
-0.0343286
-0.0346859
-0.0348193
0.00532531
0.00409829
0.00296682
0.00209079
0.00127407
0.000397127
-0.000616519
-0.00182884
-0.00329049
-0.00504142
-0.00711049
-0.00951346
-0.0122499
-0.0153002
-0.0186232
-0.0221557
-0.0258131
-0.0294928
-0.0330786
-0.0364465
-0.039472
-0.0420371
-0.0440384
-0.0453931
-0.046044
-0.0459714
-0.0451934
-0.0437641
-0.041777
-0.0393615
-0.0366769
-0.0339032
-0.0312286
-0.0288344
-0.0268786
-0.0254807
-0.0247085
-0.0245718
-0.0250228
-0.0259644
-0.0272664
-0.0287845
-0.03038
-0.0319357
-0.0333647
-0.0346109
-0.0356425
-0.0364383
-0.0369768
-0.0372717
0.00525383
0.00385746
0.00258898
0.00161754
0.000695743
-0.000325428
-0.00154033
-0.00302419
-0.00483799
-0.00702959
-0.00963336
-0.0126676
-0.0161308
-0.0199982
-0.0242195
-0.0287181
-0.0333927
-0.0381205
-0.0427627
-0.0471706
-0.051193
-0.0546847
-0.0575144
-0.0595718
-0.0607725
-0.0610694
-0.0604588
-0.058974
-0.0566955
-0.0537472
-0.0502934
-0.0465317
-0.0426819
-0.0389719
-0.035619
-0.0328115
-0.0306889
-0.0293281
-0.0287358
-0.0288506
-0.0295552
-0.0306966
-0.0321094
-0.0336385
-0.0351544
-0.0365604
-0.0377896
-0.0387957
-0.0395457
-0.0400213
0.00464668
0.00309431
0.00169495
0.000619899
-0.000430842
-0.0016361
-0.00310849
-0.00493695
-0.00719313
-0.00993302
-0.0131963
-0.0170031
-0.0213498
-0.026205
-0.0315072
-0.0371642
-0.0430552
-0.0490345
-0.0549374
-0.0605871
-0.065803
-0.0704093
-0.0742442
-0.0771675
-0.0790653
-0.0798606
-0.0795242
-0.0780628
-0.0755376
-0.0720594
-0.0677884
-0.0629308
-0.0577312
-0.0524603
-0.0473977
-0.0428101
-0.0389269
-0.0359165
-0.0338681
-0.032783
-0.0325788
-0.0331063
-0.0341758
-0.0355866
-0.0371534
-0.0387216
-0.0401728
-0.0414218
-0.0424137
-0.0430913
0.00338832
0.0016975
0.000174896
-0.00101363
-0.00222012
-0.00365251
-0.00544173
-0.00769071
-0.0104821
-0.01388
-0.0179291
-0.0226507
-0.0280375
-0.0340496
-0.0406118
-0.0476138
-0.054912
-0.0623344
-0.069687
-0.076762
-0.0833468
-0.0892338
-0.0942299
-0.098165
-0.100897
-0.102319
-0.102376
-0.101044
-0.0983619
-0.0944177
-0.0893569
-0.0833812
-0.0767455
-0.0697515
-0.0627332
-0.0560368
-0.0499927
-0.0448833
-0.0409119
-0.0381781
-0.0366676
-0.0362596
-0.0367518
-0.0378963
-0.0394384
-0.0411472
-0.0428322
-0.0443515
-0.0456159
-0.0465199
0.0013752
-0.000432756
-0.00206977
-0.00338307
-0.00477409
-0.00647829
-0.00864452
-0.0113897
-0.0148076
-0.0189703
-0.023927
-0.0296987
-0.0362728
-0.0435983
-0.0515834
-0.0600959
-0.0689655
-0.0779903
-0.0869437
-0.0955846
-0.103668
-0.110953
-0.11722
-0.122271
-0.125939
-0.128092
-0.128654
-0.127573
-0.124859
-0.120572
-0.114833
-0.107823
-0.0997876
-0.0910377
-0.0819427
-0.0729151
-0.0643846
-0.0567608
-0.0503895
-0.0455091
-0.0422186
-0.0404659
-0.0400624
-0.040722
-0.0421128
-0.0439076
-0.0458201
-0.0476301
-0.0491981
-0.0503572
-0.00147733
-0.00337784
-0.00511922
-0.00656931
-0.00817423
-0.0101944
-0.0127958
-0.0161091
-0.0202387
-0.0252645
-0.0312387
-0.0381805
-0.0460692
-0.0548397
-0.0643795
-0.0745302
-0.0850907
-0.0958249
-0.106471
-0.116754
-0.126395
-0.135129
-0.142707
-0.148915
-0.153567
-0.156512
-0.157661
-0.156942
-0.154335
-0.149873
-0.143642
-0.135786
-0.126523
-0.116143
-0.105022
-0.0936099
-0.0824149
-0.0719699
-0.0627793
-0.0552575
-0.049669
-0.0460862
-0.0443812
-0.0442561
-0.0453051
-0.0470887
-0.0491984
-0.0513093
-0.0532115
-0.0546583
-0.00522858
-0.00719425
-0.00902857
-0.0106271
-0.012474
-0.0148513
-0.0179408
-0.0218861
-0.0268016
-0.0327737
-0.0398562
-0.0480637
-0.0573644
-0.0676746
-0.0788568
-0.0907213
-0.103032
-0.115515
-0.127872
-0.139793
-0.150973
-0.16112
-0.169973
-0.177303
-0.182918
-0.186661
-0.188431
-0.188155
-0.185786
-0.18133
-0.174836
-0.166405
-0.156203
-0.144477
-0.13157
-0.117927
-0.104098
-0.0907103
-0.0784202
-0.0678396
-0.0594471
-0.0535068
-0.0500189
-0.0487248
-0.0491679
-0.0507902
-0.0530355
-0.0554431
-0.0577084
-0.0594785
-0.00990714
-0.0119082
-0.0138223
-0.0155791
-0.0176928
-0.0204627
-0.0240846
-0.0287137
-0.0344734
-0.0414543
-0.0497097
-0.0592465
-0.0700174
-0.0819157
-0.0947736
-0.108366
-0.122416
-0.136613
-0.15062
-0.164096
-0.176711
-0.188159
-0.19817
-0.206515
-0.213006
-0.217489
-0.219864
-0.220064
-0.218028
-0.213742
-0.207221
-0.19852
-0.187744
-0.175073
-0.160784
-0.145274
-0.129078
-0.112866
-0.0974118
-0.0835168
-0.0719045
-0.0630949
-0.0573002
-0.054379
-0.0538744
-0.0551235
-0.0574034
-0.0600844
-0.0627369
-0.0648676
-0.0155071
-0.017512
-0.0194905
-0.0214124
-0.023812
-0.0270016
-0.0311886
-0.0365376
-0.0431789
-0.0512056
-0.0606668
-0.0715581
-0.0838124
-0.097295
-0.111803
-0.127072
-0.142784
-0.158586
-0.174108
-0.188983
-0.202861
-0.215432
-0.226425
-0.235622
-0.242847
-0.247963
-0.250873
-0.251535
-0.24988
-0.245885
-0.239539
-0.230856
-0.219883
-0.206722
-0.19156
-0.174705
-0.156623
-0.13796
-0.119539
-0.10231
-0.0872366
-0.0751389
-0.0665261
-0.0614745
-0.0596105
-0.0602083
-0.0623751
-0.0652813
-0.068336
-0.0708647
-0.0219864
-0.023962
-0.025987
-0.0280761
-0.0307735
-0.0343993
-0.0391693
-0.0452556
-0.0527924
-0.0618722
-0.0725371
-0.0847668
-0.0984703
-0.113481
-0.129557
-0.146391
-0.163623
-0.180864
-0.19771
-0.213774
-0.228698
-0.242171
-0.253935
-0.263787
-0.271575
-0.277181
-0.280525
-0.28159
-0.280314
-0.276674
-0.270645
-0.262211
-0.25137
-0.238151
-0.222646
-0.205048
-0.185707
-0.165177
-0.144249
-0.123942
-0.105411
-0.0897815
-0.0779244
-0.0702429
-0.0665599
-0.0661656
-0.0680205
-0.0710727
-0.0745318
-0.0774923
-0.029267
-0.0311796
-0.0332304
-0.0354829
-0.0384807
-0.0425465
-0.0479013
-0.0547212
-0.0631416
-0.0732513
-0.0850813
-0.0985923
-0.113665
-0.130099
-0.147609
-0.165848
-0.184414
-0.202882
-0.220826
-0.237843
-0.253575
-0.267718
-0.280032
-0.290338
-0.298509
-0.304455
-0.308115
-0.309497
-0.30856
-0.305282
-0.299641
-0.291605
-0.281138
-0.268213
-0.252833
-0.235078
-0.215152
-0.193466
-0.170697
-0.147831
-0.126124
-0.10696
-0.0915957
-0.0808524
-0.0748818
-0.0731066
-0.0743993
-0.0774833
-0.0813323
-0.084752
-0.0372382
-0.0390541
-0.0411067
-0.043512
-0.0468026
-0.0512984
-0.057222
-0.0647503
-0.0740165
-0.0851023
-0.0980245
-0.112722
-0.129045
-0.146755
-0.16553
-0.184977
-0.204661
-0.224127
-0.24293
-0.260661
-0.276967
-0.29156
-0.304221
-0.314795
-0.323186
-0.329331
-0.333192
-0.334797
-0.334129
-0.331181
-0.325936
-0.318362
-0.308408
-0.296011
-0.281111
-0.263685
-0.243797
-0.221684
-0.197846
-0.173138
-0.148801
-0.126375
-0.107465
-0.0933657
-0.0846825
-0.0811164
-0.0815531
-0.0845176
-0.0887213
-0.0926181
-0.0457611
-0.0474471
-0.0494748
-0.0520148
-0.0555795
-0.0604811
-0.0669401
-0.0751302
-0.0851794
-0.0971594
-0.111071
-0.126827
-0.14425
-0.163062
-0.182904
-0.203346
-0.223922
-0.244154
-0.263586
-0.28181
-0.298483
-0.313336
-0.326172
-0.336864
-0.345341
-0.351567
-0.355529
-0.357268
-0.356794
-0.354114
-0.349227
-0.34211
-0.332713
-0.32096
-0.306754
-0.289999
-0.270641
-0.248748
-0.224611
-0.198877
-0.172648
-0.14749
-0.125256
-0.107703
-0.0959834
-0.0902339
-0.0894925
-0.0921518
-0.0966522
-0.101032
-0.0546751
-0.0561998
-0.0581733
-0.0608225
-0.0646315
-0.0699006
-0.0768442
-0.0856299
-0.0963771
-0.109145
-0.123917
-0.140582
-0.15893
-0.178652
-0.199352
-0.220573
-0.24182
-0.262602
-0.282458
-0.300986
-0.317855
-0.332817
-0.345699
-0.356397
-0.364864
-0.371085
-0.375069
-0.376869
-0.376518
-0.374037
-0.369442
-0.362729
-0.35386
-0.342765
-0.329336
-0.313439
-0.294938
-0.273759
-0.249989
-0.224026
-0.19674
-0.169576
-0.14449
-0.123617
-0.108694
-0.10043
-0.0981848
-0.100325
-0.105041
-0.109898
-0.063806
-0.0651408
-0.0670288
-0.0697544
-0.0737672
-0.079352
-0.086714
-0.0960113
-0.107353
-0.120784
-0.136268
-0.153673
-0.172761
-0.193193
-0.214546
-0.236335
-0.258052
-0.279194
-0.299302
-0.317981
-0.334919
-0.349884
-0.362724
-0.373357
-0.381752
-0.387915
-0.391868
-0.393674
-0.393385
-0.391035
-0.386658
-0.38027
-0.371854
-0.361359
-0.34869
-0.333702
-0.316217
-0.296064
-0.27316
-0.247655
-0.22013
-0.191787
-0.164519
-0.140696
-0.122594
-0.111591
-0.10754
-0.108933
-0.113762
-0.119073
-0.0729743
-0.0740941
-0.0758645
-0.0786274
-0.0827934
-0.0886299
-0.0963301
-0.10604
-0.117857
-0.13181
-0.147848
-0.165816
-0.185453
-0.206398
-0.228206
-0.250374
-0.272382
-0.293726
-0.31395
-0.332671
-0.349589
-0.36449
-0.37724
-0.387771
-0.396066
-0.402143
-0.406036
-0.407812
-0.40754
-0.405262
-0.401031
-0.394881
-0.386822
-0.376828
-0.36483
-0.3507
-0.334253
-0.315266
-0.293535
-0.269001
-0.241946
-0.213251
-0.184588
-0.158381
-0.137328
-0.1235
-0.1174
-0.117816
-0.12264
-0.128372
-0.0820035
-0.0828881
-0.0845089
-0.0872643
-0.0915245
-0.0975377
-0.105484
-0.115496
-0.127657
-0.141983
-0.158407
-0.176757
-0.196757
-0.218027
-0.240107
-0.262485
-0.284635
-0.306056
-0.326296
-0.344983
-0.361829
-0.376635
-0.389277
-0.399697
-0.407888
-0.413874
-0.417698
-0.419425
-0.419139
-0.416887
-0.412738
-0.406744
-0.39894
-0.389332
-0.377882
-0.364495
-0.349007
-0.331184
-0.310757
-0.28751
-0.261464
-0.233146
-0.203897
-0.176007
-0.152419
-0.135841
-0.12753
-0.126759
-0.131449
-0.137555
-0.090728
-0.0913627
-0.0928036
-0.0955029
-0.0997906
-0.105896
-0.113987
-0.12418
-0.136546
-0.151089
-0.167729
-0.186284
-0.206466
-0.227884
-0.250073
-0.272516
-0.294687
-0.316088
-0.336275
-0.354884
-0.371637
-0.386342
-0.398882
-0.409205
-0.417306
-0.423214
-0.426971
-0.428645
-0.428327
-0.426067
-0.421947
-0.416037
-0.408394
-0.399054
-0.388016
-0.375227
-0.360559
-0.3438
-0.324662
-0.302837
-0.278141
-0.250774
-0.221682
-0.192859
-0.167294
-0.148198
-0.137619
-0.135486
-0.139909
-0.146336
-0.0990004
-0.0993768
-0.10061
-0.103202
-0.107445
-0.113551
-0.121674
-0.13192
-0.144346
-0.158947
-0.175635
-0.194221
-0.214413
-0.23582
-0.257972
-0.280356
-0.302452
-0.323763
-0.343854
-0.362366
-0.379025
-0.393643
-0.406105
-0.416359
-0.424397
-0.430249
-0.433956
-0.43558
-0.435223
-0.432933
-0.428801
-0.422914
-0.415348
-0.406169
-0.395412
-0.383065
-0.36905
-0.353195
-0.33523
-0.314812
-0.291622
-0.265588
-0.237259
-0.208228
-0.181323
-0.160074
-0.147281
-0.143658
-0.147692
-0.15438
-0.106697
-0.106814
-0.107815
-0.110247
-0.114368
-0.120377
-0.128415
-0.138578
-0.150915
-0.165413
-0.181981
-0.200432
-0.220474
-0.241721
-0.263709
-0.285932
-0.307874
-0.329047
-0.349018
-0.367431
-0.384012
-0.398571
-0.41099
-0.421211
-0.429224
-0.435049
-0.438729
-0.440317
-0.439919
-0.437586
-0.433413
-0.427499
-0.419941
-0.410828
-0.40023
-0.388178
-0.374642
-0.359504
-0.342535
-0.3234
-0.301712
-0.277203
-0.250069
-0.221453
-0.193858
-0.170916
-0.156066
-0.150884
-0.154416
-0.161308
-0.113721
-0.113585
-0.114336
-0.116556
-0.120475
-0.126281
-0.134109
-0.144049
-0.156142
-0.170376
-0.186661
-0.204816
-0.224558
-0.24551
-0.267222
-0.289196
-0.310924
-0.331924
-0.351764
-0.370088
-0.386617
-0.401153
-0.413571
-0.423804
-0.431831
-0.437666
-0.441345
-0.442917
-0.442486
-0.440103
-0.435869
-0.429892
-0.422285
-0.413159
-0.402614
-0.39072
-0.377497
-0.362881
-0.3467
-0.328654
-0.308344
-0.285384
-0.259687
-0.23196
-0.204269
-0.180137
-0.16347
-0.156719
-0.159656
-0.166698
-0.120004
-0.11963
-0.120119
-0.122079
-0.125713
-0.131206
-0.138694
-0.148265
-0.15996
-0.173769
-0.189611
-0.207317
-0.226619
-0.247157
-0.268493
-0.290144
-0.311611
-0.332416
-0.352126
-0.370378
-0.386887
-0.401442
-0.413903
-0.424192
-0.432275
-0.438156
-0.441862
-0.443436
-0.442975
-0.440544
-0.436237
-0.430171
-0.422471
-0.413267
-0.402684
-0.39083
-0.377767
-0.363485
-0.347872
-0.330684
-0.311545
-0.29002
-0.265824
-0.239283
-0.211976
-0.187144
-0.168954
-0.160672
-0.162942
-0.17009
-0.125508
-0.124918
-0.125142
-0.126796
-0.130062
-0.135128
-0.142137
-0.151184
-0.162319
-0.175541
-0.190784
-0.207894
-0.226624
-0.246633
-0.267505
-0.288767
-0.309932
-0.330524
-0.350108
-0.368312
-0.384836
-0.399454
-0.412011
-0.422408
-0.430598
-0.43657
-0.440342
-0.441953
-0.441481
-0.439003
-0.434609
-0.428426
-0.420589
-0.411247
-0.400551
-0.388633
-0.375594
-0.36147
-0.34621
-0.329629
-0.311402
-0.291093
-0.268305
-0.243062
-0.21647
-0.191359
-0.171951
-0.162214
-0.163761
-0.170982
-0.130223
-0.129448
-0.129411
-0.130718
-0.133536
-0.138056
-0.144441
-0.152804
-0.163212
-0.175683
-0.190169
-0.206541
-0.224574
-0.243952
-0.264277
-0.285094
-0.305923
-0.326291
-0.345756
-0.363935
-0.380511
-0.395237
-0.407936
-0.418492
-0.426837
-0.432945
-0.436822
-0.438498
-0.43804
-0.435532
-0.43106
-0.424754
-0.41676
-0.407237
-0.396352
-0.384266
-0.371118
-0.35699
-0.341874
-0.325646
-0.308041
-0.288656
-0.26705
-0.24304
-0.217316
-0.192231
-0.17188
-0.160774
-0.161554
-0.168829
-0.13417
-0.133244
-0.132958
-0.133885
-0.136173
-0.140027
-0.145636
-0.153147
-0.162656
-0.174209
-0.187786
-0.203284
-0.220505
-0.239157
-0.258864
-0.279187
-0.299654
-0.31979
-0.339147
-0.357326
-0.373989
-0.388867
-0.401759
-0.412523
-0.421073
-0.427364
-0.431388
-0.433165
-0.432748
-0.43023
-0.425686
-0.419252
-0.411082
-0.401345
-0.390223
-0.377896
-0.364522
-0.350221
-0.335036
-0.318904
-0.301611
-0.282805
-0.262052
-0.239047
-0.214153
-0.189245
-0.168145
-0.155739
-0.155706
-0.163028
-0.137389
-0.136357
-0.135842
-0.136359
-0.138036
-0.141097
-0.145773
-0.152256
-0.160689
-0.171158
-0.183675
-0.198168
-0.21447
-0.232314
-0.251342
-0.271132
-0.291216
-0.311118
-0.33038
-0.348583
-0.36537
-0.380443
-0.393577
-0.404602
-0.413409
-0.419933
-0.424151
-0.42607
-0.42573
-0.423225
-0.418627
-0.412071
-0.403715
-0.393736
-0.382326
-0.369681
-0.35598
-0.341365
-0.325908
-0.309594
-0.292279
-0.273666
-0.253349
-0.230977
-0.206682
-0.181912
-0.160133
-0.146441
-0.145528
-0.152899
-0.139945
-0.138859
-0.138139
-0.138218
-0.139203
-0.14134
-0.144916
-0.150189
-0.157364
-0.166579
-0.17789
-0.19126
-0.206549
-0.223513
-0.241816
-0.261043
-0.280733
-0.300405
-0.319587
-0.337843
-0.354788
-0.370102
-0.383525
-0.394864
-0.403982
-0.410793
-0.415255
-0.417363
-0.417145
-0.414686
-0.41006
-0.403396
-0.394853
-0.384614
-0.372876
-0.359842
-0.345706
-0.330628
-0.314703
-0.29794
-0.280241
-0.261381
-0.241007
-0.218761
-0.194644
-0.169762
-0.147199
-0.132131
-0.130228
-0.13765
-0.141922
-0.140838
-0.139945
-0.139557
-0.13976
-0.140832
-0.143133
-0.147007
-0.152741
-0.160539
-0.170507
-0.182647
-0.196844
-0.212877
-0.230421
-0.249072
-0.268368
-0.287821
-0.306945
-0.325283
-0.342426
-0.358022
-0.371784
-0.383489
-0.392974
-0.400128
-0.40489
-0.407241
-0.407196
-0.404823
-0.400206
-0.393459
-0.38474
-0.374231
-0.36213
-0.348643
-0.333966
-0.318267
-0.301657
-0.284164
-0.26571
-0.246113
-0.225096
-0.202344
-0.177793
-0.152313
-0.12864
-0.111952
-0.108868
-0.116322
-0.143419
-0.142404
-0.141371
-0.140479
-0.139796
-0.13965
-0.14049
-0.142772
-0.146884
-0.15311
-0.161614
-0.172435
-0.185484
-0.200555
-0.217332
-0.235411
-0.254328
-0.273584
-0.292679
-0.311135
-0.328514
-0.344437
-0.358587
-0.370711
-0.380618
-0.388174
-0.393297
-0.395949
-0.396135
-0.393901
-0.389337
-0.382541
-0.373666
-0.362887
-0.350396
-0.336392
-0.321066
-0.304583
-0.287051
-0.268508
-0.248888
-0.228025
-0.205688
-0.18165
-0.155856
-0.12904
-0.103665
-0.0848877
-0.0803075
-0.0877146
-0.144557
-0.143687
-0.142542
-0.141089
-0.139393
-0.137854
-0.137039
-0.137536
-0.139854
-0.144371
-0.151313
-0.160755
-0.172629
-0.186735
-0.202759
-0.220293
-0.238864
-0.257962
-0.277067
-0.295679
-0.313337
-0.329632
-0.344219
-0.356815
-0.367201
-0.375219
-0.380764
-0.383782
-0.38426
-0.382228
-0.377769
-0.370969
-0.361966
-0.350924
-0.33802
-0.323438
-0.307351
-0.289905
-0.271196
-0.251245
-0.229985
-0.207254
-0.182831
-0.15656
-0.128493
-0.0993238
-0.0713327
-0.0496884
-0.0430972
-0.0502567
-0.145488
-0.144847
-0.143605
-0.141496
-0.138621
-0.135487
-0.132809
-0.131335
-0.131709
-0.13441
-0.139726
-0.147766
-0.158472
-0.171644
-0.186961
-0.204002
-0.222282
-0.241272
-0.260437
-0.279254
-0.297237
-0.313951
-0.329022
-0.34214
-0.353061
-0.3616
-0.367631
-0.371079
-0.371916
-0.370155
-0.365856
-0.359102
-0.350006
-0.338712
-0.325376
-0.310152
-0.293184
-0.274584
-0.254412
-0.232655
-0.209215
-0.183911
-0.156521
-0.126901
-0.0952592
-0.0624071
-0.0305041
-0.00478408
0.00466045
-0.001816
-0.146419
-0.146092
-0.144736
-0.141813
-0.137532
-0.132562
-0.127807
-0.12419
-0.122504
-0.123324
-0.126999
-0.13366
-0.14325
-0.155558
-0.170245
-0.186873
-0.204936
-0.223889
-0.243175
-0.262251
-0.280607
-0.297786
-0.313387
-0.327076
-0.338581
-0.347696
-0.354273
-0.358215
-0.359475
-0.35805
-0.353972
-0.347314
-0.33816
-0.326626
-0.312835
-0.296902
-0.278923
-0.258959
-0.237011
-0.213003
-0.186775
-0.158088
-0.126689
-0.0924396
-0.0556225
-0.0173502
0.0201761
0.0517157
0.0653931
0.060503
-0.147668
-0.147723
-0.146163
-0.142164
-0.136163
-0.129073
-0.122019
-0.116118
-0.112303
-0.11124
-0.113318
-0.118678
-0.127253
-0.138808
-0.152976
-0.169296
-0.187238
-0.206236
-0.225713
-0.245105
-0.263886
-0.281572
-0.297744
-0.312043
-0.324176
-0.333913
-0.341084
-0.345573
-0.347312
-0.346277
-0.342477
-0.335957
-0.326773
-0.315004
-0.30073
-0.284012
-0.264885
-0.243331
-0.219268
-0.192522
-0.162827
-0.129843
-0.0932313
-0.0528201
-0.00893641
0.0370194
0.0823652
0.121978
0.142003
0.140396
-0.149792
-0.150214
-0.148216
-0.142711
-0.134555
-0.125003
-0.115436
-0.107152
-0.101206
-0.0983269
-0.0989237
-0.103125
-0.110837
-0.121788
-0.13558
-0.151719
-0.16965
-0.188783
-0.208523
-0.228291
-0.247539
-0.265769
-0.28254
-0.297475
-0.310261
-0.320648
-0.328444
-0.333514
-0.335768
-0.335159
-0.331672
-0.325317
-0.316118
-0.304106
-0.289309
-0.271723
-0.2513
-0.227924
-0.201392
-0.171393
-0.137504
-0.099218
-0.0560373
-0.00768364
0.0455236
0.102055
0.158268
0.208767
0.23829
0.242738
-0.153852
-0.154387
-0.151417
-0.143704
-0.132799
-0.120379
-0.108091
-0.0973859
-0.0893826
-0.0848368
-0.0841407
-0.0873855
-0.0944309
-0.104963
-0.118541
-0.134637
-0.152669
-0.172027
-0.192098
-0.212286
-0.232032
-0.250823
-0.268202
-0.283776
-0.297215
-0.308251
-0.316673
-0.322326
-0.3251
-0.324922
-0.32175
-0.315562
-0.306341
-0.294063
-0.278693
-0.260151
-0.238287
-0.212862
-0.183519
-0.14976
-0.110942
-0.0663103
-0.0151123
0.0431566
0.108312
0.17878
0.25036
0.316037
0.360517
0.37595
-0.161975
-0.161747
-0.15665
-0.145597
-0.131126
-0.115356
-0.100147
-0.0870381
-0.0771331
-0.0711393
-0.0693993
-0.0719341
-0.0785402
-0.0888498
-0.102379
-0.118565
-0.136799
-0.156453
-0.1769
-0.197531
-0.217778
-0.237116
-0.255078
-0.271258
-0.285313
-0.296958
-0.305969
-0.312168
-0.315427
-0.315648
-0.312762
-0.306711
-0.297436
-0.284859
-0.268865
-0.249285
-0.225857
-0.198192
-0.165746
-0.127785
-0.0833785
-0.0314295
0.0291989
0.0994013
0.179319
0.267556
0.359871
0.44792
0.516609
0.553453
-0.178417
-0.175098
-0.165467
-0.149234
-0.130065
-0.11035
-0.0920077
-0.0765413
-0.0649324
-0.0577527
-0.055244
-0.0573252
-0.0637138
-0.0739826
-0.0876024
-0.103979
-0.122481
-0.142464
-0.16329
-0.184346
-0.205054
-0.224884
-0.243363
-0.260075
-0.274666
-0.286842
-0.296361
-0.303033
-0.306707
-0.307266
-0.304611
-0.298649
-0.289278
-0.276363
-0.259709
-0.239046
-0.213985
-0.183974
-0.148253
-0.105815
-0.0553733
0.00461447
0.0758342
0.159817
0.257356
0.36755
0.486386
0.605994
0.707802
0.779823
-0.211335
-0.199531
-0.180367
-0.155858
-0.130387
-0.10598
-0.0842538
-0.0664641
-0.0533481
-0.0452566
-0.0422405
-0.0440926
-0.0504421
-0.0607996
-0.0745943
-0.0912042
-0.109981
-0.130271
-0.15143
-0.172842
-0.193928
-0.214154
-0.233045
-0.250181
-0.2652
-0.2778
-0.287728
-0.294781
-0.298791
-0.299619
-0.29714
-0.291227
-0.281734
-0.268469
-0.251164
-0.229441
-0.202786
-0.170479
-0.131538
-0.0846599
-0.0281635
0.0400323
0.122352
0.221338
0.339094
0.476197
0.629774
0.791362
0.930621
1.03507
-0.280258
-0.243414
-0.202833
-0.164838
-0.131101
-0.101383
-0.0763127
-0.0565479
-0.0423571
-0.0337382
-0.0305207
-0.0323738
-0.0388415
-0.0493813
-0.0633916
-0.0802339
-0.0992519
-0.119789
-0.141203
-0.162879
-0.18424
-0.204758
-0.223953
-0.241407
-0.256754
-0.269684
-0.279939
-0.287302
-0.291592
-0.292651
-0.290329
-0.284469
-0.274884
-0.261331
-0.243473
-0.220847
-0.192824
-0.158536
-0.116803
-0.0660533
-0.00422934
0.0713025
0.163819
0.277238
0.415928
0.584122
0.784034
1.00988
1.21713
1.36925
-0.457995
-0.313103
-0.218534
-0.164603
-0.124198
-0.0903204
-0.0635338
-0.0435001
-0.0295065
-0.0212349
-0.0184466
-0.0207502
-0.0276416
-0.0385623
-0.052913
-0.0700623
-0.0893626
-0.110167
-0.131843
-0.153784
-0.175421
-0.196228
-0.215731
-0.233507
-0.249192
-0.26247
-0.273075
-0.280781
-0.285397
-0.286747
-0.284665
-0.27897
-0.269441
-0.2558
-0.237668
-0.214527
-0.185669
-0.150129
-0.106598
-0.0533275
0.0119982
0.0924221
0.191932
0.315779
0.470995
0.667286
0.918068
1.23958
1.62916
2.07737
-0.913066
-0.400323
-0.194407
-0.145753
-0.108155
-0.0713162
-0.0445497
-0.0263739
-0.0140659
-0.00704984
-0.0052804
-0.00842859
-0.0160027
-0.027477
-0.0422915
-0.0598459
-0.0795162
-0.100674
-0.122701
-0.145001
-0.167012
-0.188211
-0.208126
-0.226335
-0.242466
-0.256203
-0.267271
-0.275438
-0.280503
-0.282282
-0.280597
-0.275253
-0.266023
-0.25261
-0.234617
-0.211506
-0.182541
-0.146727
-0.102717
-0.0487106
0.0176909
0.0996823
0.201566
0.329302
0.491598
0.702377
0.986692
1.39867
2.06763
3.21981
)
;

boundaryField
{
    movingWall
    {
        type            zeroGradient;
    }
    fixedWalls
    {
        type            zeroGradient;
    }
    frontAndBack
    {
        type            empty;
    }
}


// ************************************************************************* //
