/*--------------------------------*- C++ -*----------------------------------*\
  =========                 |
  \\      /  F ield         | OpenFOAM: The Open Source CFD Toolbox
   \\    /   O peration     | Website:  https://openfoam.org
    \\  /    A nd           | Version:  7
     \\/     M anipulation  |
\*---------------------------------------------------------------------------*/
FoamFile
{
    version     2.0;
    format      ascii;
    class       volScalarField;
    location    "150";
    object      p;
}
// * * * * * * * * * * * * * * * * * * * * * * * * * * * * * * * * * * * * * //

dimensions      [0 2 -2 0 0 0 0];

internalField   nonuniform List<scalar> 
2500
(
6.89618e-06
8.52567e-05
3.16409e-06
-0.000300091
-0.000779223
-0.00137195
-0.00203868
-0.00277575
-0.00360967
-0.00458169
-0.00573204
-0.00709067
-0.00867454
-0.0104828
-0.0124911
-0.0146431
-0.0168435
-0.0189562
-0.0208103
-0.0222166
-0.0229923
-0.0229893
-0.0221224
-0.0203976
-0.0179303
-0.0149402
-0.0117428
-0.00875451
-0.00644747
-0.00528054
-0.00561975
-0.0076545
-0.0113054
-0.0162999
-0.0222066
-0.0284665
-0.0345347
-0.0399814
-0.0445471
-0.0481347
-0.0507759
-0.0525931
-0.0537547
-0.0544348
-0.0547864
-0.0549278
-0.0549393
-0.0548653
-0.0547291
-0.0545901
-5.30058e-05
1.89074e-05
-6.83949e-05
-0.000369014
-0.000825485
-0.00137392
-0.00197987
-0.00264566
-0.00340058
-0.0042855
-0.00533937
-0.00659226
-0.0080651
-0.00976514
-0.0116799
-0.0137713
-0.0159658
-0.018148
-0.0201596
-0.02181
-0.0228984
-0.0232457
-0.0227281
-0.0213102
-0.0190745
-0.0162271
-0.0130976
-0.0101234
-0.00779478
-0.00659085
-0.00689488
-0.0089093
-0.0125941
-0.0176481
-0.0235694
-0.0298129
-0.0358212
-0.0411235
-0.0454421
-0.0487187
-0.0510535
-0.0526193
-0.0536065
-0.0541882
-0.0545026
-0.0546496
-0.0546934
-0.0546648
-0.0545661
-0.0544346
1.2473e-06
6.76919e-05
-4.33489e-05
-0.000369935
-0.000825845
-0.00133564
-0.00187002
-0.00244295
-0.00309615
-0.00387758
-0.00483194
-0.00600025
-0.0074216
-0.00913124
-0.0111492
-0.0134632
-0.0160097
-0.018662
-0.0212308
-0.0234816
-0.0251659
-0.0260602
-0.0260033
-0.0249321
-0.0229241
-0.0201979
-0.0170849
-0.0140169
-0.0114947
-0.0100194
-0.0100073
-0.0117003
-0.0151004
-0.0199471
-0.0257576
-0.0319195
-0.0378276
-0.0430193
-0.0471824
-0.0502161
-0.0522206
-0.0534279
-0.054091
-0.0544181
-0.0545576
-0.0546031
-0.0546042
-0.0545724
-0.0544785
-0.0543347
0.000254889
0.000289034
0.000119675
-0.000265577
-0.00074394
-0.00122733
-0.00169609
-0.00218366
-0.00275215
-0.00347378
-0.00442375
-0.00568381
-0.00734112
-0.0094737
-0.0121232
-0.0152651
-0.0187898
-0.0225007
-0.0261329
-0.0293878
-0.0319732
-0.033643
-0.0342261
-0.0336505
-0.0319758
-0.0293963
-0.0262159
-0.0228509
-0.0197997
-0.0175846
-0.0166726
-0.0173855
-0.0198205
-0.0238096
-0.0289359
-0.0346093
-0.0401958
-0.0451516
-0.0491373
-0.0520344
-0.0538722
-0.0548371
-0.0552017
-0.0552292
-0.0551094
-0.0549571
-0.054827
-0.0547229
-0.0545941
-0.0544301
0.000742492
0.000707041
0.000442543
-2.27304e-05
-0.000535371
-0.00101099
-0.00144556
-0.00190108
-0.00248054
-0.00330869
-0.00452596
-0.00628317
-0.00872031
-0.01193
-0.0159194
-0.020588
-0.0257286
-0.0310511
-0.0362182
-0.0408853
-0.0447365
-0.0475142
-0.0490396
-0.0492249
-0.0480915
-0.0457764
-0.0425331
-0.0387383
-0.0348608
-0.0314224
-0.0289349
-0.0278199
-0.0283231
-0.0304484
-0.0339361
-0.0383037
-0.0429517
-0.0472992
-0.0509113
-0.0535659
-0.0552613
-0.0561406
-0.056387
-0.056242
-0.0559284
-0.0555951
-0.0553201
-0.0551204
-0.0549453
-0.0547698
0.00150786
0.00136724
0.00098315
0.00042986
-0.00013769
-0.000647033
-0.00112598
-0.0016907
-0.00251427
-0.00380686
-0.0057969
-0.00869758
-0.0126584
-0.0177191
-0.0237855
-0.0306358
-0.0379505
-0.0453532
-0.0524512
-0.0588695
-0.0642782
-0.0684141
-0.0710953
-0.0722251
-0.0717973
-0.0698895
-0.066687
-0.0624987
-0.0577223
-0.0528294
-0.0483285
-0.0447092
-0.0423686
-0.041533
-0.042198
-0.0441126
-0.0468291
-0.0498112
-0.0525673
-0.0547558
-0.056226
-0.0570018
-0.0572359
-0.0570895
-0.0567309
-0.0563212
-0.0559636
-0.055699
-0.0554962
-0.0553272
0.00258656
0.00231744
0.00180552
0.00115338
0.000494349
-0.000132128
-0.000818564
-0.00176521
-0.0032458
-0.00557233
-0.00904339
-0.0138777
-0.0201555
-0.0277903
-0.0365399
-0.0460445
-0.0558764
-0.065587
-0.0747456
-0.082967
-0.0899325
-0.0954006
-0.099211
-0.101279
-0.1016
-0.100219
-0.0972532
-0.0929224
-0.0875153
-0.0813928
-0.0749794
-0.0687426
-0.0631523
-0.0586205
-0.0554298
-0.0536692
-0.0532052
-0.0537102
-0.0547505
-0.0559046
-0.05686
-0.0574554
-0.0576731
-0.0575939
-0.0573212
-0.0569654
-0.0566264
-0.0563643
-0.0561731
-0.0560315
0.00398139
0.00357762
0.00293739
0.00216347
0.00134303
0.000442554
-0.000728399
-0.00248315
-0.00520751
-0.00928931
-0.0150289
-0.0225594
-0.0318085
-0.0425095
-0.0542498
-0.0665339
-0.0788431
-0.0906845
-0.101625
-0.111312
-0.11948
-0.12595
-0.130613
-0.133419
-0.134384
-0.133568
-0.131034
-0.126917
-0.121385
-0.114654
-0.106997
-0.0987523
-0.0903269
-0.0821786
-0.0747769
-0.0685384
-0.0637469
-0.0604848
-0.0586073
-0.057784
-0.0576031
-0.0576901
-0.0577865
-0.0577748
-0.0576465
-0.0574416
-0.057221
-0.0570392
-0.0569055
-0.0568091
0.00563079
0.00510031
0.00432702
0.00338754
0.00227786
0.000853387
-0.00120212
-0.00432428
-0.00898167
-0.0155628
-0.0242683
-0.0350515
-0.0476235
-0.0615105
-0.0761335
-0.0908873
-0.105206
-0.118607
-0.130712
-0.141252
-0.150057
-0.157038
-0.162155
-0.1654
-0.166819
-0.166506
-0.1645
-0.160871
-0.155693
-0.149052
-0.14106
-0.131871
-0.121714
-0.110923
-0.0999483
-0.089355
-0.0797608
-0.0717313
-0.0656423
-0.061563
-0.0592317
-0.0581584
-0.0578076
-0.0577578
-0.0577707
-0.0577641
-0.0577315
-0.0576943
-0.0576564
-0.0576161
0.00737711
0.0067344
0.00581634
0.00462727
0.00302904
0.000737928
-0.00269725
-0.00780689
-0.0150673
-0.0247609
-0.0368849
-0.0511401
-0.066991
-0.0837646
-0.100755
-0.117309
-0.132886
-0.147086
-0.159641
-0.170402
-0.179309
-0.186361
-0.191585
-0.195008
-0.196696
-0.196766
-0.195254
-0.192195
-0.187613
-0.181516
-0.1739
-0.164763
-0.154137
-0.142131
-0.128995
-0.115181
-0.101374
-0.0884466
-0.0773155
-0.0686998
-0.0628776
-0.0595819
-0.058136
-0.0577573
-0.057831
-0.0580181
-0.0582062
-0.058352
-0.0584338
-0.0584529
0.00895645
0.00822036
0.00712026
0.00554745
0.00319646
-0.000365641
-0.0057035
-0.0133743
-0.0237568
-0.0369185
-0.0525736
-0.0701368
-0.0888388
-0.107859
-0.126444
-0.143982
-0.160038
-0.174351
-0.186793
-0.197337
-0.206014
-0.21289
-0.218029
-0.221483
-0.223317
-0.223652
-0.22252
-0.219948
-0.215945
-0.210495
-0.203546
-0.195019
-0.18481
-0.172832
-0.159077
-0.143711
-0.127188
-0.110336
-0.09433
-0.0804922
-0.0699055
-0.0630034
-0.0593932
-0.0580868
-0.0579947
-0.0583341
-0.0587348
-0.0590749
-0.0592847
-0.0593636
0.0100141
0.00918702
0.00783752
0.00570544
0.0023025
-0.00293854
-0.010641
-0.0212929
-0.0350669
-0.0517306
-0.0706775
-0.0910509
-0.111908
-0.132372
-0.15174
-0.16953
-0.185469
-0.199453
-0.211487
-0.221633
-0.229981
-0.236624
-0.24164
-0.245082
-0.247008
-0.247522
-0.246648
-0.244415
-0.240835
-0.235898
-0.229558
-0.221725
-0.212258
-0.200972
-0.187676
-0.172251
-0.154779
-0.135728
-0.116096
-0.0974158
-0.0814601
-0.0696585
-0.0624804
-0.0592294
-0.058478
-0.0588265
-0.0594178
-0.0599447
-0.0602841
-0.0604257
0.0101249
0.00919251
0.00750372
0.00461957
-0.000122856
-0.00738482
-0.0177694
-0.0315941
-0.048738
-0.0686253
-0.0903399
-0.112816
-0.135033
-0.156165
-0.175651
-0.193188
-0.208681
-0.222161
-0.233725
-0.243488
-0.251556
-0.258024
-0.26296
-0.266411
-0.268416
-0.269061
-0.268357
-0.266334
-0.26301
-0.25839
-0.25245
-0.245129
-0.236313
-0.225818
-0.213398
-0.198772
-0.181714
-0.162234
-0.14083
-0.118726
-0.0978838
-0.0805679
-0.068475
-0.0618944
-0.0595901
-0.0596039
-0.0603334
-0.0610395
-0.0615167
-0.0617329
0.00885985
0.00779645
0.00567063
0.00185796
-0.00444947
-0.0139482
-0.0271349
-0.0440712
-0.0642928
-0.0868833
-0.110674
-0.134485
-0.157328
-0.178516
-0.197682
-0.214713
-0.229659
-0.242647
-0.253819
-0.2633
-0.271192
-0.277569
-0.282487
-0.285977
-0.288062
-0.288814
-0.288232
-0.286343
-0.283167
-0.278714
-0.272982
-0.265944
-0.257532
-0.247621
-0.236001
-0.222374
-0.206378
-0.18769
-0.166255
-0.142649
-0.118411
-0.0960416
-0.0783066
-0.0669802
-0.0618307
-0.0608286
-0.0615318
-0.0624242
-0.0630629
-0.0633785
0.00586513
0.00464005
0.00199155
-0.00287713
-0.0108738
-0.0226646
-0.0385638
-0.0583228
-0.0811263
-0.105763
-0.1309
-0.155348
-0.178239
-0.199084
-0.217715
-0.234177
-0.248619
-0.261213
-0.272108
-0.281417
-0.289219
-0.29557
-0.300509
-0.304053
-0.306218
-0.307062
-0.306581
-0.304795
-0.301718
-0.297363
-0.291733
-0.284823
-0.276605
-0.267013
-0.255917
-0.243094
-0.228198
-0.210785
-0.190433
-0.167052
-0.141377
-0.115418
-0.0923412
-0.0753426
-0.0659007
-0.0628028
-0.0630873
-0.0641577
-0.0649919
-0.0654487
0.000930039
-0.000484925
-0.00371139
-0.00969218
-0.0193827
-0.0333582
-0.0516971
-0.0738231
-0.0986005
-0.124598
-0.150416
-0.174946
-0.197501
-0.217798
-0.235838
-0.251777
-0.265812
-0.278122
-0.288839
-0.29805
-0.305812
-0.312165
-0.317134
-0.320731
-0.322964
-0.323887
-0.323497
-0.321803
-0.318817
-0.314545
-0.30899
-0.302152
-0.29402
-0.284572
-0.273747
-0.261419
-0.247347
-0.231137
-0.212251
-0.190168
-0.16481
-0.137227
-0.110128
-0.0874571
-0.0725699
-0.0660243
-0.0651607
-0.0663046
-0.0673793
-0.0680307
-0.00597166
-0.00759374
-0.0114128
-0.0184837
-0.0297578
-0.0456739
-0.06605
-0.0899978
-0.116119
-0.14285
-0.168811
-0.193038
-0.215044
-0.234726
-0.25221
-0.267713
-0.281441
-0.293551
-0.30415
-0.313299
-0.321035
-0.327387
-0.332377
-0.336012
-0.338299
-0.339285
-0.338975
-0.337369
-0.334476
-0.330296
-0.324828
-0.318068
-0.310008
-0.30064
-0.289946
-0.277875
-0.264305
-0.248973
-0.231417
-0.210983
-0.187056
-0.159678
-0.130476
-0.103157
-0.0824151
-0.0711243
-0.0680564
-0.0689676
-0.0703345
-0.0712258
-0.0146717
-0.0165042
-0.0208883
-0.0289572
-0.0416135
-0.0591339
-0.0810784
-0.106288
-0.133175
-0.160123
-0.185839
-0.209533
-0.230902
-0.249985
-0.266986
-0.282138
-0.295632
-0.307594
-0.3181
-0.327193
-0.334898
-0.341236
-0.346229
-0.349885
-0.352208
-0.353244
-0.353001
-0.351476
-0.348675
-0.344597
-0.339234
-0.332578
-0.324617
-0.315342
-0.304747
-0.292821
-0.279526
-0.264739
-0.248158
-0.22922
-0.207124
-0.181195
-0.151815
-0.121607
-0.0955647
-0.0786957
-0.0722042
-0.0722987
-0.0739734
-0.0751395
-0.0248336
-0.0268638
-0.0317502
-0.0406736
-0.0544537
-0.0731992
-0.0962373
-0.122194
-0.149364
-0.176146
-0.201369
-0.224419
-0.245146
-0.263687
-0.280279
-0.295148
-0.308452
-0.320289
-0.330708
-0.339739
-0.347399
-0.353709
-0.358689
-0.362351
-0.364698
-0.365769
-0.365582
-0.364129
-0.361414
-0.357436
-0.352187
-0.345654
-0.337823
-0.328678
-0.318208
-0.306413
-0.293296
-0.27883
-0.262877
-0.245067
-0.224683
-0.200746
-0.172644
-0.141524
-0.111583
-0.0890777
-0.0780699
-0.0765139
-0.0783975
-0.0798784
-0.0359995
-0.0382009
-0.0435023
-0.0531083
-0.0677324
-0.0873264
-0.111024
-0.137296
-0.164383
-0.190742
-0.215342
-0.237721
-0.257846
-0.275911
-0.292159
-0.30679
-0.319931
-0.331649
-0.341978
-0.350938
-0.358543
-0.364814
-0.369772
-0.37343
-0.375791
-0.376887
-0.376745
-0.375352
-0.372714
-0.368828
-0.363689
-0.357284
-0.349598
-0.34061
-0.330304
-0.318673
-0.305727
-0.291485
-0.275927
-0.258879
-0.239846
-0.217888
-0.191854
-0.161525
-0.129553
-0.102207
-0.086043
-0.0818832
-0.0836949
-0.0855527
-0.0476498
-0.0499834
-0.0556002
-0.0657105
-0.0809076
-0.101009
-0.125001
-0.151257
-0.178011
-0.203802
-0.227734
-0.249468
-0.269051
-0.286704
-0.302659
-0.317083
-0.330073
-0.341675
-0.351911
-0.360793
-0.368339
-0.374567
-0.379497
-0.383146
-0.385515
-0.386628
-0.386522
-0.385179
-0.382605
-0.3788
-0.37376
-0.367476
-0.359933
-0.351112
-0.340993
-0.329561
-0.316818
-0.302792
-0.287519
-0.270976
-0.252908
-0.232611
-0.208838
-0.180435
-0.148305
-0.117585
-0.0962979
-0.0886605
-0.0899464
-0.0922601
-0.0592591
-0.0616764
-0.0675066
-0.0779528
-0.0934814
-0.113807
-0.137811
-0.163819
-0.19009
-0.215256
-0.238534
-0.259679
-0.278789
-0.296088
-0.311788
-0.326027
-0.338876
-0.350365
-0.360507
-0.369314
-0.376801
-0.382985
-0.387888
-0.391526
-0.393899
-0.395023
-0.394946
-0.393642
-0.391121
-0.387383
-0.382429
-0.37625
-0.368838
-0.360177
-0.350247
-0.339031
-0.326521
-0.312736
-0.297728
-0.281554
-0.264157
-0.245123
-0.223408
-0.197455
-0.166674
-0.13437
-0.108694
-0.0970139
-0.0972418
-0.100048
-0.0703427
-0.0727919
-0.0787341
-0.0893671
-0.105026
-0.125352
-0.149169
-0.174786
-0.200509
-0.225055
-0.247732
-0.26836
-0.287064
-0.304062
-0.319541
-0.333614
-0.346333
-0.357716
-0.36777
-0.376507
-0.383941
-0.390087
-0.394965
-0.398592
-0.400967
-0.402097
-0.402042
-0.400769
-0.398289
-0.394605
-0.389719
-0.383628
-0.376327
-0.367807
-0.358053
-0.347049
-0.334783
-0.321264
-0.306536
-0.290687
-0.273781
-0.255668
-0.235636
-0.212165
-0.183701
-0.151545
-0.122755
-0.10695
-0.105626
-0.108863
-0.0805127
-0.0828973
-0.0888761
-0.0995662
-0.115195
-0.13536
-0.158859
-0.184015
-0.209186
-0.23316
-0.255313
-0.275505
-0.29387
-0.310615
-0.325904
-0.339832
-0.352435
-0.363723
-0.373702
-0.38238
-0.38977
-0.395885
-0.400743
-0.404361
-0.406738
-0.407871
-0.407833
-0.406582
-0.404132
-0.400487
-0.395652
-0.389628
-0.382416
-0.374012
-0.364409
-0.353596
-0.341563
-0.328313
-0.313881
-0.298354
-0.281856
-0.264424
-0.245688
-0.224433
-0.198712
-0.168096
-0.137738
-0.118246
-0.11501
-0.118491
-0.0894753
-0.0916494
-0.0975994
-0.108252
-0.123727
-0.14362
-0.166728
-0.191407
-0.216063
-0.239542
-0.26126
-0.281098
-0.29919
-0.315727
-0.33086
-0.344665
-0.357171
-0.368383
-0.378303
-0.386937
-0.394296
-0.400391
-0.405237
-0.40885
-0.411229
-0.412367
-0.412337
-0.411102
-0.40867
-0.405049
-0.400246
-0.394266
-0.387115
-0.378797
-0.369312
-0.358658
-0.34683
-0.333832
-0.319693
-0.30449
-0.288368
-0.271475
-0.253719
-0.234293
-0.211314
-0.183151
-0.152747
-0.130424
-0.125092
-0.128555
-0.0969998
-0.0988468
-0.104661
-0.11521
-0.130446
-0.149987
-0.172669
-0.19689
-0.221099
-0.244173
-0.265551
-0.285118
-0.303
-0.319377
-0.334387
-0.348097
-0.36053
-0.371689
-0.38157
-0.39018
-0.397524
-0.403613
-0.408457
-0.41207
-0.414454
-0.4156
-0.415575
-0.414349
-0.411923
-0.40831
-0.403518
-0.397557
-0.390438
-0.382171
-0.372765
-0.362227
-0.350561
-0.337777
-0.323904
-0.309014
-0.293249
-0.276813
-0.259812
-0.241827
-0.221321
-0.196051
-0.166877
-0.142803
-0.135385
-0.13857
-0.102938
-0.104383
-0.109931
-0.120306
-0.135249
-0.154396
-0.176645
-0.200444
-0.224276
-0.247038
-0.268169
-0.287544
-0.305278
-0.321541
-0.336463
-0.350109
-0.362498
-0.373629
-0.383497
-0.392104
-0.399454
-0.405553
-0.410409
-0.414032
-0.416424
-0.417579
-0.417556
-0.416334
-0.413905
-0.410284
-0.405484
-0.399515
-0.392395
-0.384141
-0.374769
-0.364297
-0.35274
-0.340116
-0.32646
-0.311843
-0.296407
-0.280375
-0.263975
-0.247102
-0.228679
-0.206355
-0.179316
-0.15461
-0.14531
-0.148011
-0.107235
-0.10823
-0.113382
-0.1235
-0.138102
-0.156818
-0.178623
-0.202028
-0.225553
-0.248097
-0.269078
-0.28835
-0.306008
-0.322213
-0.337091
-0.350708
-0.363084
-0.374216
-0.384097
-0.392726
-0.400102
-0.406228
-0.411107
-0.414746
-0.417146
-0.418304
-0.418277
-0.417057
-0.414614
-0.410971
-0.406142
-0.40014
-0.392987
-0.384706
-0.375323
-0.364864
-0.353354
-0.340823
-0.327315
-0.31291
-0.29775
-0.282068
-0.266158
-0.250142
-0.23339
-0.2138
-0.18942
-0.165086
-0.15428
-0.15637
-0.109926
-0.110448
-0.115085
-0.124844
-0.139051
-0.157296
-0.178637
-0.20166
-0.224921
-0.247315
-0.268227
-0.287473
-0.305122
-0.321324
-0.336205
-0.349835
-0.362236
-0.373407
-0.383339
-0.392024
-0.399459
-0.405643
-0.410575
-0.414257
-0.416691
-0.41787
-0.417826
-0.416581
-0.414096
-0.410397
-0.405501
-0.399428
-0.392204
-0.383856
-0.374413
-0.36391
-0.352382
-0.33987
-0.326432
-0.312157
-0.297196
-0.281791
-0.266275
-0.250917
-0.235465
-0.218252
-0.19672
-0.173563
-0.161757
-0.163189
-0.111119
-0.111174
-0.115191
-0.124463
-0.138201
-0.155922
-0.176759
-0.199387
-0.222404
-0.244695
-0.265602
-0.284892
-0.302597
-0.318853
-0.333785
-0.347469
-0.359934
-0.37118
-0.381196
-0.389971
-0.397495
-0.403763
-0.40877
-0.412513
-0.414993
-0.416205
-0.416163
-0.414901
-0.412372
-0.408607
-0.403625
-0.397447
-0.3901
-0.381619
-0.372045
-0.361423
-0.3498
-0.337227
-0.323769
-0.309529
-0.29467
-0.279451
-0.264229
-0.249368
-0.2349
-0.219651
-0.200907
-0.179497
-0.167262
-0.16806
-0.110982
-0.110609
-0.113922
-0.122551
-0.135709
-0.152824
-0.173089
-0.195274
-0.218032
-0.240239
-0.261187
-0.280579
-0.298404
-0.314773
-0.329809
-0.343596
-0.356168
-0.36753
-0.37767
-0.386571
-0.394219
-0.400603
-0.405712
-0.40954
-0.412082
-0.413335
-0.413299
-0.412019
-0.409439
-0.40559
-0.400498
-0.394185
-0.386681
-0.378026
-0.368265
-0.357448
-0.345633
-0.332885
-0.319292
-0.304974
-0.290108
-0.274963
-0.259924
-0.245415
-0.231672
-0.217976
-0.201794
-0.182468
-0.17038
-0.170621
-0.109736
-0.109001
-0.111558
-0.119369
-0.131791
-0.14818
-0.167764
-0.189413
-0.211849
-0.23395
-0.254953
-0.274491
-0.292493
-0.309036
-0.324236
-0.33818
-0.350911
-0.362436
-0.372745
-0.381816
-0.389629
-0.396166
-0.401411
-0.405351
-0.407977
-0.409284
-0.409263
-0.407961
-0.405324
-0.401377
-0.396151
-0.389669
-0.381965
-0.37308
-0.363067
-0.351982
-0.339891
-0.32687
-0.313021
-0.298481
-0.28346
-0.268256
-0.253275
-0.238978
-0.225741
-0.213218
-0.199276
-0.182168
-0.170743
-0.170542
-0.107627
-0.106622
-0.108414
-0.115229
-0.126717
-0.142213
-0.160961
-0.181927
-0.203922
-0.225842
-0.246875
-0.266577
-0.284801
-0.301581
-0.31701
-0.331174
-0.344123
-0.355868
-0.366398
-0.37569
-0.383715
-0.390448
-0.395867
-0.399952
-0.402689
-0.404067
-0.404077
-0.402755
-0.400058
-0.396002
-0.390619
-0.383936
-0.375988
-0.366818
-0.356484
-0.345047
-0.332581
-0.319175
-0.304944
-0.29005
-0.274726
-0.259302
-0.244225
-0.229991
-0.217066
-0.205378
-0.193311
-0.178383
-0.168023
-0.167516
-0.104917
-0.103747
-0.104808
-0.110479
-0.120801
-0.135187
-0.152894
-0.172976
-0.194347
-0.215947
-0.236934
-0.256781
-0.275257
-0.292331
-0.308061
-0.322521
-0.335759
-0.347791
-0.358606
-0.368176
-0.376468
-0.383448
-0.389086
-0.393356
-0.396236
-0.397712
-0.39777
-0.396435
-0.393679
-0.389505
-0.383946
-0.37703
-0.368795
-0.359284
-0.348557
-0.336681
-0.323737
-0.309825
-0.295078
-0.279679
-0.263895
-0.248092
-0.23276
-0.21843
-0.20563
-0.194467
-0.183895
-0.170981
-0.161922
-0.161244
-0.101855
-0.100622
-0.101036
-0.10547
-0.114395
-0.127407
-0.143812
-0.16275
-0.183248
-0.204322
-0.225121
-0.245048
-0.263778
-0.281194
-0.297301
-0.312144
-0.32576
-0.338163
-0.34934
-0.359261
-0.367885
-0.375171
-0.381082
-0.385583
-0.388646
-0.39025
-0.39038
-0.389046
-0.386236
-0.381939
-0.376186
-0.369009
-0.360444
-0.350535
-0.339343
-0.326938
-0.313408
-0.298865
-0.283459
-0.2674
-0.250989
-0.234637
-0.218883
-0.204303
-0.19147
-0.180534
-0.171065
-0.159901
-0.15217
-0.151431
-0.0986604
-0.0974518
-0.0973405
-0.10053
-0.107862
-0.11921
-0.133999
-0.151472
-0.170783
-0.191049
-0.211447
-0.231329
-0.250274
-0.268064
-0.284624
-0.299948
-0.314049
-0.326926
-0.338563
-0.348923
-0.35796
-0.365625
-0.371872
-0.37666
-0.379953
-0.381725
-0.381955
-0.380642
-0.377788
-0.373366
-0.367407
-0.359943
-0.351007
-0.340644
-0.328914
-0.315889
-0.301664
-0.286362
-0.270152
-0.253276
-0.236071
-0.218998
-0.20265
-0.187656
-0.174646
-0.163686
-0.154918
-0.145162
-0.138556
-0.137794
-0.095507
-0.0943862
-0.0938977
-0.0959278
-0.101548
-0.11095
-0.123767
-0.139395
-0.157137
-0.176241
-0.19595
-0.215594
-0.234662
-0.252825
-0.269904
-0.285817
-0.300526
-0.314007
-0.326225
-0.337135
-0.346684
-0.354817
-0.361479
-0.366621
-0.370201
-0.372187
-0.372553
-0.371289
-0.368405
-0.363862
-0.357688
-0.349914
-0.340571
-0.3297
-0.31736
-0.303627
-0.2886
-0.272414
-0.255261
-0.237413
-0.219253
-0.201296
-0.18419
-0.168618
-0.155251
-0.14411
-0.135623
-0.126863
-0.12095
-0.120075
-0.0925178
-0.0915231
-0.0908119
-0.0918508
-0.0957479
-0.102972
-0.113445
-0.126795
-0.142524
-0.160046
-0.178705
-0.197843
-0.21688
-0.235372
-0.253015
-0.269621
-0.285079
-0.299313
-0.31226
-0.323858
-0.334044
-0.342753
-0.349924
-0.355501
-0.359438
-0.361695
-0.362242
-0.361062
-0.358167
-0.353514
-0.347121
-0.339019
-0.329236
-0.317809
-0.304795
-0.290271
-0.274342
-0.257157
-0.238932
-0.219975
-0.200715
-0.181723
-0.163707
-0.147397
-0.133487
-0.122014
-0.113394
-0.105152
-0.0993166
-0.0980124
-0.0897677
-0.0889184
-0.088125
-0.0883944
-0.0906709
-0.095576
-0.103352
-0.113962
-0.127185
-0.142647
-0.159834
-0.178132
-0.19692
-0.215642
-0.233857
-0.251246
-0.267592
-0.282744
-0.296592
-0.309042
-0.320014
-0.329432
-0.337228
-0.34334
-0.347715
-0.350311
-0.351095
-0.350043
-0.347163
-0.342417
-0.33581
-0.32737
-0.317121
-0.305099
-0.291358
-0.275975
-0.259062
-0.240785
-0.221384
-0.201203
-0.180723
-0.160572
-0.141511
-0.12431
-0.109681
-0.0976414
-0.0885333
-0.080208
-0.0736809
-0.0712452
-0.0872891
-0.0865953
-0.0858337
-0.0855668
-0.0864109
-0.0889658
-0.0937602
-0.101174
-0.11137
-0.124261
-0.139512
-0.156591
-0.174855
-0.193652
-0.212398
-0.230626
-0.247986
-0.264223
-0.279154
-0.29264
-0.30457
-0.314853
-0.323409
-0.330172
-0.335085
-0.338103
-0.339189
-0.338319
-0.33549
-0.330678
-0.323872
-0.315094
-0.304369
-0.291731
-0.277229
-0.260943
-0.242996
-0.223566
-0.20292
-0.181443
-0.15966
-0.138255
-0.118032
-0.0997896
-0.0842407
-0.0713367
-0.0614204
-0.0522534
-0.0442252
-0.0393565
-0.0850749
-0.0845508
-0.0839059
-0.0833043
-0.0829325
-0.0832006
-0.0848295
-0.0886547
-0.0953272
-0.105137
-0.117984
-0.133445
-0.150879
-0.169549
-0.188736
-0.207813
-0.226275
-0.243743
-0.259934
-0.274642
-0.287714
-0.299031
-0.308501
-0.316048
-0.321613
-0.325147
-0.326616
-0.325991
-0.323264
-0.318425
-0.311447
-0.302351
-0.291162
-0.27791
-0.262646
-0.245454
-0.226463
-0.20587
-0.183968
-0.161173
-0.138053
-0.115329
-0.0938352
-0.0743792
-0.0576547
-0.0435414
-0.0324656
-0.0215655
-0.011566
-0.00226582
-0.0830724
-0.0827475
-0.0822846
-0.0814832
-0.0800686
-0.0781578
-0.0765548
-0.0765258
-0.0792749
-0.0855577
-0.0955746
-0.109043
-0.125342
-0.143664
-0.16316
-0.183043
-0.202648
-0.221447
-0.239041
-0.255139
-0.269527
-0.282048
-0.292588
-0.30106
-0.307399
-0.311557
-0.313498
-0.313195
-0.310636
-0.305824
-0.298724
-0.289354
-0.27774
-0.263916
-0.247934
-0.229883
-0.209903
-0.188205
-0.165102
-0.141036
-0.116595
-0.0925152
-0.0696271
-0.0487165
-0.0304389
-0.0146293
-0.00183316
0.0118253
0.0234877
0.0398748
-0.0811692
-0.0810937
-0.080865
-0.0799086
-0.0775196
-0.0735205
-0.0687254
-0.0647588
-0.0633718
-0.065837
-0.0727115
-0.0838928
-0.0987972
-0.11656
-0.136214
-0.156817
-0.177544
-0.197715
-0.216801
-0.234408
-0.250248
-0.264117
-0.275868
-0.285397
-0.292633
-0.297524
-0.300035
-0.300143
-0.297834
-0.293116
-0.285969
-0.276401
-0.264443
-0.250135
-0.233534
-0.214739
-0.193897
-0.171231
-0.147066
-0.121845
-0.0961522
-0.0706932
-0.046248
-0.0235292
-0.0031096
0.0152379
0.0309234
0.0488196
0.0619447
0.0892085
-0.0791888
-0.07942
-0.0794503
-0.0782786
-0.0748528
-0.0688026
-0.0609462
-0.0531763
-0.047712
-0.0463216
-0.049943
-0.0586864
-0.0720318
-0.0890737
-0.108739
-0.129949
-0.151724
-0.173236
-0.193826
-0.212991
-0.23036
-0.245668
-0.25873
-0.269421
-0.277655
-0.283377
-0.286553
-0.287164
-0.285198
-0.280665
-0.273567
-0.26391
-0.251732
-0.237079
-0.220023
-0.200667
-0.179169
-0.155754
-0.130739
-0.104543
-0.077699
-0.0508318
-0.0246067
0.000405255
0.0237933
0.0459759
0.066558
0.0913028
0.109039
0.153123
-0.0769458
-0.0775071
-0.077782
-0.0762292
-0.0715689
-0.0634394
-0.0527421
-0.0415385
-0.0323755
-0.0274202
-0.0279592
-0.0343266
-0.0460907
-0.0623307
-0.0818928
-0.103582
-0.126285
-0.149041
-0.171066
-0.19175
-0.210638
-0.227401
-0.24181
-0.253711
-0.263003
-0.269626
-0.273544
-0.274741
-0.273215
-0.268974
-0.262038
-0.252427
-0.240189
-0.225383
-0.20809
-0.18842
-0.166533
-0.142642
-0.117033
-0.0900648
-0.0621688
-0.0338216
-0.00549783
0.0224582
0.0498899
0.0775448
0.10544
0.140685
0.171091
0.236979
-0.0745721
-0.0753438
-0.0756999
-0.073509
-0.0674014
-0.0571023
-0.0438063
-0.0297383
-0.0175561
-0.00965992
-0.0076002
-0.011905
-0.0222426
-0.037707
-0.0571002
-0.079144
-0.102622
-0.12646
-0.14977
-0.171844
-0.192149
-0.210293
-0.226002
-0.239091
-0.249442
-0.256985
-0.261685
-0.263531
-0.262526
-0.258689
-0.252045
-0.242628
-0.230497
-0.215737
-0.19844
-0.178718
-0.156715
-0.132618
-0.106654
-0.0790854
-0.0501888
-0.0202182
0.0106524
0.0424589
0.0754779
0.11092
0.149139
0.198945
0.247044
0.326812
-0.0733407
-0.0739304
-0.0738662
-0.0704709
-0.0625434
-0.0500645
-0.034435
-0.018128
-0.00380292
0.00619002
0.0101199
0.00732903
-0.00191963
-0.016752
-0.0359671
-0.0582471
-0.0823101
-0.107006
-0.131362
-0.154599
-0.176114
-0.195461
-0.212324
-0.226489
-0.23782
-0.246237
-0.251702
-0.254208
-0.253767
-0.250408
-0.244175
-0.235109
-0.223254
-0.208701
-0.191567
-0.171973
-0.150045
-0.125921
-0.0997528
-0.0716767
-0.0417734
-0.00999324
0.0239471
0.0607607
0.101661
0.149033
0.204026
0.275482
0.336651
0.412642
-0.0776601
-0.0768046
-0.0749524
-0.0691695
-0.0586156
-0.0436172
-0.0258178
-0.00777415
0.00786655
0.0190271
0.0240844
0.0221909
0.0135962
-0.000845185
-0.0199509
-0.0423979
-0.066875
-0.092188
-0.117315
-0.141421
-0.163858
-0.184137
-0.20191
-0.216937
-0.229067
-0.238211
-0.244328
-0.247413
-0.247482
-0.244572
-0.238734
-0.230034
-0.218538
-0.2043
-0.187406
-0.167988
-0.14617
-0.122053
-0.0957092
-0.067141
-0.0362072
-0.00248833
0.0349176
0.0777804
0.129088
0.194164
0.277948
0.390593
0.48408
0.592774
-0.100977
-0.0929128
-0.0841981
-0.0732734
-0.058969
-0.040964
-0.020931
-0.00137362
0.0153942
0.0272736
0.0327469
0.031241
0.023008
0.00885978
-0.0100619
-0.0324635
-0.057046
-0.0826088
-0.108109
-0.132686
-0.155658
-0.176509
-0.194863
-0.210462
-0.223139
-0.232795
-0.239384
-0.242898
-0.243355
-0.240793
-0.235267
-0.226842
-0.215588
-0.201589
-0.184933
-0.165706
-0.144002
-0.119892
-0.0933853
-0.0643622
-0.0324641
0.00310897
0.0439317
0.0929961
0.15553
0.241175
0.362798
0.544079
0.7578
1.09957
-0.187565
-0.109565
-0.07774
-0.0684058
-0.0552266
-0.0362451
-0.0152444
0.0048535
0.0216739
0.0331968
0.0381606
0.0361756
0.0275672
0.0131717
-0.00587848
-0.0283251
-0.0529112
-0.0784721
-0.103989
-0.128614
-0.151668
-0.172634
-0.19113
-0.20689
-0.219741
-0.229578
-0.23635
-0.240045
-0.240681
-0.238293
-0.232936
-0.224674
-0.213581
-0.199736
-0.183223
-0.164123
-0.142511
-0.118434
-0.0918461
-0.0625309
-0.0299636
0.00694053
0.0502422
0.103769
0.174196
0.274025
0.423326
0.669849
1.0709
1.82188
)
;

boundaryField
{
    movingWall
    {
        type            zeroGradient;
    }
    fixedWalls
    {
        type            zeroGradient;
    }
    frontAndBack
    {
        type            empty;
    }
}


// ************************************************************************* //
