/*--------------------------------*- C++ -*----------------------------------*\
  =========                 |
  \\      /  F ield         | OpenFOAM: The Open Source CFD Toolbox
   \\    /   O peration     | Website:  https://openfoam.org
    \\  /    A nd           | Version:  7
     \\/     M anipulation  |
\*---------------------------------------------------------------------------*/
FoamFile
{
    version     2.0;
    format      ascii;
    class       surfaceScalarField;
    location    "150";
    object      phi;
}
// * * * * * * * * * * * * * * * * * * * * * * * * * * * * * * * * * * * * * //

dimensions      [0 3 -1 0 0 0 0];

internalField   nonuniform List<scalar> 
4900
(
1.65179e-06
-1.8088e-06
6.25129e-06
-4.59568e-06
1.17653e-05
-5.53317e-06
1.6544e-05
-4.80203e-06
1.97695e-05
-3.24596e-06
2.13815e-05
-1.62869e-06
2.17311e-05
-3.63595e-07
2.11901e-05
5.2879e-07
1.9891e-05
1.28757e-06
1.76569e-05
2.22298e-06
1.40847e-05
3.56136e-06
8.67926e-06
5.3952e-06
9.40305e-07
7.72946e-06
-9.59487e-06
1.05264e-05
-2.32862e-05
1.36834e-05
-4.03053e-05
1.70119e-05
-6.0567e-05
2.02552e-05
-8.36454e-05
2.30724e-05
-0.00010871
2.50591e-05
-0.000134508
2.57935e-05
-0.000159413
2.49e-05
-0.000181529
2.2112e-05
-0.000198856
1.73232e-05
-0.000209485
1.06249e-05
-0.000211832
2.34338e-06
-0.000204879
-6.95611e-06
-0.000188293
-1.6589e-05
-0.000162512
-2.57834e-05
-0.000128749
-3.37666e-05
-8.89565e-05
-3.9795e-05
-4.57327e-05
-4.32265e-05
-2.16048e-06
-4.3575e-05
3.84566e-05
-4.06199e-05
7.3145e-05
-3.46913e-05
9.96167e-05
-2.64746e-05
0.000116454
-1.68403e-05
0.000123375
-6.92337e-06
0.000121305
2.068e-06
0.000112159
9.14332e-06
9.83103e-05
1.38463e-05
8.21374e-05
1.61706e-05
6.56456e-05
1.64896e-05
5.02598e-05
1.53836e-05
3.67859e-05
1.34717e-05
2.55057e-05
1.12779e-05
1.63469e-05
9.15654e-06
9.10203e-06
7.24264e-06
3.71053e-06
5.38915e-06
5.43996e-07
3.1643e-06
5.43532e-07
4.48782e-06
-6.28103e-06
1.38894e-05
-1.4024e-05
2.43326e-05
-1.60268e-05
3.28526e-05
-1.33752e-05
3.78512e-05
-8.29139e-06
3.89475e-05
-2.76494e-06
3.6421e-05
2.12826e-06
3.05607e-05
6.35751e-06
2.12317e-05
1.05867e-05
7.77701e-06
1.56489e-05
-1.08282e-05
2.21395e-05
-3.57041e-05
3.02464e-05
-6.77602e-05
3.97636e-05
-0.000107437
5.01838e-05
-0.000154492
6.07215e-05
-0.000207841
7.03456e-05
-0.0002655
7.79022e-05
-0.000324726
8.22862e-05
-0.000382287
8.2611e-05
-0.000434828
7.83255e-05
-0.000479196
6.92593e-05
-0.0005127
5.56081e-05
-0.000533271
3.78876e-05
-0.000539545
1.68925e-05
-0.00053094
-6.26804e-06
-0.000507531
-3.03712e-05
-0.00046992
-5.42058e-05
-0.000419245
-7.64635e-05
-0.000357263
-9.57535e-05
-0.000286375
-0.000110689
-0.000209609
-0.000119997
-0.000130522
-0.000122668
-5.29828e-05
-0.000118166
1.89316e-05
-0.000106612
8.13944e-05
-8.89439e-05
0.000131495
-6.69476e-05
0.000167207
-4.26413e-05
0.000187616
-1.83468e-05
0.000193141
3.61259e-06
0.000185722
2.12604e-05
0.000168418
3.34695e-05
0.000144807
4.0095e-05
0.000118339
4.18461e-05
9.1858e-05
3.99477e-05
6.73223e-05
3.58082e-05
4.58045e-05
3.06687e-05
2.77606e-05
2.52808e-05
1.35195e-05
1.96245e-05
3.82401e-06
1.28545e-05
4.36696e-06
6.0012e-06
-1.22837e-05
1.7325e-05
-2.53629e-05
2.86886e-05
-2.74258e-05
3.65407e-05
-2.12693e-05
3.90324e-05
-1.08242e-05
3.55773e-05
6.52383e-07
2.60966e-05
1.15746e-05
1.03493e-05
2.20732e-05
-1.24724e-05
3.33794e-05
-4.3679e-05
4.68299e-05
-8.46403e-05
6.30785e-05
-0.000136266
8.18527e-05
-0.000198578
0.00010206
-0.000270403
0.000121995
-0.000349312
0.000139618
-0.000431871
0.000152895
-0.000514111
0.000160133
-0.000592056
0.000160223
-0.000662166
0.000152714
-0.00072161
0.000137763
-0.00076835
0.000115993
-0.000801082
8.83344e-05
-0.000819095
5.58949e-05
-0.000822082
1.98744e-05
-0.000809951
-1.84048e-05
-0.000782706
-5.76207e-05
-0.000740618
-9.62979e-05
-0.000684358
-0.000132728
-0.000615077
-0.000165038
-0.000534525
-0.000191246
-0.000445126
-0.000209401
-0.000349993
-0.000217805
-0.000252854
-0.000215309
-0.000157838
-0.000201633
-6.91814e-05
-0.000177606
9.04401e-06
-0.000145179
7.37032e-05
-0.000107306
0.000122918
-6.7567e-05
0.000155676
-2.91519e-05
0.000172022
4.90897e-06
0.000173348
3.21382e-05
0.000162355
5.10834e-05
0.000142545
6.16512e-05
0.000117601
6.48863e-05
9.08301e-05
6.25746e-05
6.47769e-05
5.67167e-05
4.11793e-05
4.88732e-05
2.13072e-05
3.94906e-05
6.65171e-06
2.75056e-05
1.10181e-05
6.49304e-06
-1.87708e-05
1.74665e-05
-3.63507e-05
2.66038e-05
-3.65916e-05
3.01098e-05
-2.48108e-05
2.61924e-05
-6.94422e-06
1.41468e-05
1.26623e-05
-6.59691e-06
3.22863e-05
-3.70991e-05
5.25475e-05
-7.89096e-05
7.51661e-05
-0.000133493
0.000101394
-0.000201522
0.000131091
-0.000282315
0.000162631
-0.00037362
0.000193352
-0.000471828
0.000220192
-0.000572538
0.000240319
-0.000671263
0.000251612
-0.000764044
0.000252907
-0.000847803
0.000243975
-0.000920424
0.000225329
-0.000980616
0.000197949
-0.00102767
0.000163037
-0.00106119
0.000121849
-0.00108091
7.56174e-05
-0.00108659
2.55423e-05
-0.00107784
-2.71511e-05
-0.00105437
-8.1103e-05
-0.00101596
-0.000134705
-0.000962638
-0.000186056
-0.000894714
-0.000232965
-0.000813002
-0.000272961
-0.000718996
-0.00030341
-0.000615044
-0.000321759
-0.000504442
-0.000325915
-0.000391369
-0.000314709
-0.000280635
-0.000288343
-0.00017715
-0.000248668
-8.53283e-05
-0.000199132
-8.6154e-06
-0.000144285
5.12354e-05
-8.90083e-05
9.38687e-05
-3.773e-05
0.000119556
6.44546e-06
0.000129486
4.11477e-05
0.000126075
6.50574e-05
0.000112568
7.83889e-05
9.25299e-05
8.26076e-05
6.93449e-05
7.98968e-05
4.58808e-05
7.23323e-05
2.45513e-05
6.08153e-05
7.9096e-06
4.41424e-05
1.89271e-05
6.13072e-06
-2.49064e-05
1.45838e-05
-4.48194e-05
1.85343e-05
-4.05665e-05
1.43575e-05
-2.06652e-05
5.17031e-07
6.86309e-06
-2.39026e-05
3.70515e-05
-6.01199e-05
6.84776e-05
-0.000109879
0.000102284
-0.000174764
0.000140033
-0.000255231
0.000181846
-0.000349942
0.000225789
-0.000455712
0.000268391
-0.000568022
0.000305653
-0.000681848
0.000334011
-0.00079251
0.000350974
-0.000896254
0.00035535
-0.000990469
0.000347117
-0.00107359
0.000327091
-0.00114482
0.000296551
-0.00120381
0.00025694
-0.00125046
0.000209679
-0.0012847
0.000156091
-0.00130648
9.73916e-05
-0.00131567
3.47287e-05
-0.00131203
-3.08018e-05
-0.00129518
-9.7956e-05
-0.00126463
-0.000165258
-0.00121976
-0.000230924
-0.00115997
-0.000292757
-0.00108486
-0.000348078
-0.000994514
-0.00039376
-0.000889857
-0.000426418
-0.000772989
-0.000442786
-0.000647417
-0.000440284
-0.00051806
-0.000417702
-0.000390887
-0.000375844
-0.000272151
-0.000317872
-0.000167326
-0.000249113
-8.01571e-05
-0.000176181
-1.22889e-05
-0.000105603
3.6692e-05
-4.2541e-05
6.80627e-05
9.7714e-06
8.34093e-05
4.97055e-05
8.51965e-05
7.65967e-05
7.65904e-05
9.12088e-05
6.10847e-05
9.53977e-05
4.21534e-05
9.1259e-05
2.3126e-05
7.98372e-05
7.51522e-06
5.97494e-05
2.64418e-05
4.74081e-06
-2.965e-05
8.33742e-06
-4.84342e-05
4.24077e-06
-3.64937e-05
-1.0551e-05
-5.90115e-06
-3.73903e-05
3.36754e-05
-7.74671e-05
7.71047e-05
-0.000132513
0.000123504
-0.000204217
0.000173972
-0.000292993
0.000228795
-0.000397122
0.000285963
-0.000512762
0.000341419
-0.000634706
0.000390327
-0.000757445
0.000428384
-0.000876103
0.000452662
-0.000986988
0.000461854
-0.00108771
0.000456064
-0.00117696
0.000436367
-0.00125423
0.000404356
-0.00131948
0.000361797
-0.00137297
0.000310423
-0.00141511
0.000251819
-0.00144641
0.000187379
-0.00146732
0.000118302
-0.00147821
4.56172e-05
-0.00147921
-2.98092e-05
-0.00147009
-0.000107082
-0.00145023
-0.000185117
-0.00141859
-0.000262572
-0.00137372
-0.000337625
-0.00131399
-0.000407807
-0.00123784
-0.000469918
-0.00114419
-0.00052007
-0.00103303
-0.000553951
-0.000905961
-0.000567351
-0.000766692
-0.000556974
-0.000621122
-0.000521416
-0.000476915
-0.00046208
-0.000342365
-0.000383666
-0.000224737
-0.000293812
-0.000128656
-0.000201687
-5.53773e-05
-0.000115825
-3.43136e-06
-4.21798e-05
2.97958e-05
1.64728e-05
4.68844e-05
5.95029e-05
5.07673e-05
8.7321e-05
4.48327e-05
0.000101327
3.27732e-05
0.000103314
1.84557e-05
9.41506e-05
5.97939e-06
7.22211e-05
3.24207e-05
2.01457e-06
-3.16733e-05
-1.70456e-06
-4.4735e-05
-1.64224e-05
-2.17983e-05
-4.42764e-05
2.193e-05
-8.64584e-05
7.5837e-05
-0.000144408
0.000135036
-0.000219758
0.000198839
-0.000313026
0.000267228
-0.000422454
0.000338212
-0.00054388
0.000407381
-0.000671612
0.000469143
-0.000799669
0.000518378
-0.000922844
0.000551554
-0.00103727
0.00056708
-0.00114049
0.000565067
-0.00123123
0.000546808
-0.00130913
0.00051426
-0.00137442
0.000469639
-0.00142778
0.00041516
-0.00147024
0.000352871
-0.00150296
0.000284536
-0.00152716
0.000211583
-0.00154396
0.00013509
-0.00155418
5.5842e-05
-0.00155836
-2.56355e-05
-0.00155652
-0.00010893
-0.00154814
-0.000193494
-0.00153208
-0.000278639
-0.00150649
-0.000363212
-0.00146893
-0.000445379
-0.00141644
-0.000522404
-0.001346
-0.000590513
-0.00125504
-0.000644917
-0.00114225
-0.000680137
-0.00100853
-0.000690701
-0.000857693
-0.000672253
-0.000696845
-0.000622931
-0.000535829
-0.000544685
-0.000385653
-0.000443989
-0.000256024
-0.000331319
-0.000152818
-0.000219034
-7.69e-05
-0.000118102
-2.52043e-05
-3.52277e-05
6.59055e-06
2.77029e-05
2.23953e-05
7.15111e-05
2.59931e-05
9.77251e-05
2.13337e-05
0.000107969
1.2584e-05
0.000102895
4.06688e-06
8.07349e-05
3.6487e-05
-2.28036e-06
-2.93993e-05
-1.56545e-05
-3.13819e-05
-4.30125e-05
5.53934e-06
-8.55837e-05
6.44834e-05
-0.000144371
0.000134609
-0.000220714
0.000211367
-0.000315236
0.00029335
-0.000426422
0.000378404
-0.00055015
0.000461932
-0.000680463
0.000537687
-0.000810939
0.000599612
-0.000935898
0.000643332
-0.00105107
0.000666724
-0.00115373
0.000669732
-0.00124247
0.000653808
-0.00131698
0.000621306
-0.00137773
0.000575007
-0.00142585
0.00051776
-0.00146293
0.000452231
-0.00149077
0.000380714
-0.00151126
0.00030502
-0.00152612
0.000226444
-0.00153684
0.000145805
-0.00154454
6.35382e-05
-0.00154997
-2.02086e-05
-0.00155342
-0.000105486
-0.00155465
-0.000192262
-0.0015528
-0.000280497
-0.00154621
-0.000369804
-0.00153235
-0.000459233
-0.00150778
-0.000546977
-0.00146823
-0.000630065
-0.00140903
-0.000704119
-0.00132586
-0.000763311
-0.00121585
-0.000800715
-0.0010789
-0.000809201
-0.000918906
-0.000782927
-0.000744327
-0.000719266
-0.000567624
-0.000620695
-0.000403103
-0.000495841
-0.000263387
-0.000358752
-0.000155716
-0.000225776
-8.02414e-05
-0.000110706
-3.18016e-05
-2.07413e-05
-3.98401e-06
4.36887e-05
8.63558e-06
8.51007e-05
1.08904e-05
0.000105709
7.36621e-06
0.000106415
2.47324e-06
8.56234e-05
3.89598e-05
-8.18355e-06
-2.12255e-05
-3.30114e-05
-6.57329e-06
-7.42638e-05
4.67751e-05
-0.000132122
0.000122328
-0.000207359
0.000209835
-0.000300565
0.000304562
-0.000410621
0.000403398
-0.000533785
0.00050156
-0.000664119
0.000592261
-0.000794855
0.000668418
-0.000919774
0.000724526
-0.00103405
0.000757607
-0.00113452
0.000767187
-0.00121954
0.000754745
-0.00128876
0.000723025
-0.0013429
0.000675443
-0.0013835
0.000615604
-0.00141266
0.000546919
-0.00143276
0.000472324
-0.00144615
0.000394103
-0.00145498
0.000313852
-0.00146107
0.000232531
-0.00146586
0.000150589
-0.00147042
6.80959e-05
-0.0014755
-1.51291e-05
-0.00148154
-9.94551e-05
-0.00148861
-0.000185196
-0.00149636
-0.00027275
-0.00150382
-0.000362341
-0.00150918
-0.000453874
-0.0015095
-0.000546656
-0.00150056
-0.000639012
-0.00147685
-0.000727831
-0.00143202
-0.000808144
-0.00135979
-0.000872946
-0.00125545
-0.000913537
-0.00111772
-0.000920656
-0.0009505
-0.000886492
-0.00076382
-0.000807375
-0.000573203
-0.00068646
-0.000396736
-0.000535221
-0.000250167
-0.000372347
-0.000141765
-0.00021911
-7.02279e-05
-9.22821e-05
-2.76939e-05
1.15021e-06
-5.52111e-06
6.29235e-05
3.13942e-06
9.70446e-05
3.92925e-06
0.00010562
1.61808e-06
8.79316e-05
4.05773e-05
-1.53893e-05
-5.84229e-06
-5.27374e-05
3.07573e-05
-0.000108055
0.00010208
-0.000180587
0.00019485
-0.00027057
0.000299809
-0.000377261
0.000411246
-0.000497559
0.00052369
-0.000625892
0.000629888
-0.000755356
0.00072172
-0.000879222
0.000792279
-0.000992027
0.000837327
-0.00109004
0.000855612
-0.00117125
0.000848402
-0.00123525
0.000818737
-0.00128291
0.000770688
-0.00131618
0.000708702
-0.00133763
0.000637057
-0.00135015
0.000559431
-0.00135648
0.000478654
-0.00135903
0.000396651
-0.00135972
0.000314534
-0.00135997
0.000232788
-0.00136085
0.000151457
-0.00136306
7.03116e-05
-0.00136716
-1.10378e-05
-0.00137353
-9.30848e-05
-0.00138247
-0.000176256
-0.00139414
-0.000261086
-0.00140838
-0.000348099
-0.0014245
-0.000437754
-0.00144088
-0.000530282
-0.00145453
-0.000625364
-0.00146073
-0.000721627
-0.00145291
-0.000815965
-0.00142301
-0.000902856
-0.0013626
-0.000973944
-0.0012649
-0.00101835
-0.00112728
-0.00102412
-0.000953715
-0.000980943
-0.000756202
-0.000883975
-0.000553865
-0.000737559
-0.000368973
-0.00055724
-0.000220201
-0.000367884
-0.000115861
-0.000196625
-5.19692e-05
-6.27449e-05
-1.74882e-05
2.84383e-05
-1.94637e-06
8.14984e-05
2.45189e-06
0.000101219
1.57451e-06
8.88045e-05
4.21514e-05
-2.33772e-05
1.75269e-05
-7.32679e-05
8.06357e-05
-0.000141746
0.000170549
-0.000227179
0.000280275
-0.000328877
0.0004015
-0.000444493
0.000526857
-0.000569175
0.000648367
-0.000696216
0.000756924
-0.000818531
0.00084403
-0.000930004
0.000903749
-0.00102624
0.000933557
-0.00110475
0.000934123
-0.0011649
0.000908551
-0.00120766
0.000861496
-0.00123528
0.000798298
-0.0012508
0.000724218
-0.00125755
0.000643809
-0.00125867
0.000560549
-0.00125676
0.000476739
-0.00125375
0.00039364
-0.00125095
0.000311735
-0.00124917
0.000231003
-0.00124887
0.000151153
-0.00125033
7.17729e-05
-0.00125378
-7.59077e-06
-0.00125946
-8.74006e-05
-0.00126772
-0.000168006
-0.00127896
-0.000249848
-0.00129362
-0.000333433
-0.001312
-0.000419376
-0.00133391
-0.000508371
-0.00135823
-0.000601046
-0.00138226
-0.000697605
-0.00140106
-0.000797164
-0.00140713
-0.000896787
-0.00139067
-0.000990405
-0.00134096
-0.00106806
-0.00124894
-0.00111614
-0.00111059
-0.00111929
-0.000930314
-0.00106425
-0.000722742
-0.000945132
-0.000511357
-0.000768626
-0.000322867
-0.000556375
-0.000178055
-0.000341439
-8.34507e-05
-0.000157352
-3.08267e-05
-2.41892e-05
-6.07768e-06
5.67458e-05
2.18786e-06
9.2948e-05
2.10514e-06
8.88846e-05
4.4256e-05
-3.13815e-05
4.8905e-05
-9.27838e-05
0.000142028
-0.000172603
0.000250361
-0.000268209
0.000375876
-0.000377752
0.000511038
-0.000497355
0.000646456
-0.000620926
0.000771935
-0.000741328
0.000877323
-0.00085189
0.000954589
-0.00094748
0.000999336
-0.00102498
0.00101106
-0.00108336
0.000992496
-0.00112348
0.000948672
-0.00114777
0.000885785
-0.00115965
0.000810178
-0.00116289
0.000727454
-0.00116098
0.0006419
-0.00115675
0.00055631
-0.00115215
0.000472139
-0.00114837
0.000389857
-0.00114597
0.000309333
-0.00114512
0.000230157
-0.00114581
0.000151841
-0.00114796
7.39239e-05
-0.00115155
-4.00069e-06
-0.00115667
-8.22894e-05
-0.00116354
-0.000161137
-0.00117258
-0.000240804
-0.0011844
-0.000321613
-0.00119975
-0.000404026
-0.0012194
-0.000488729
-0.00124379
-0.000576656
-0.00127249
-0.000668901
-0.00130333
-0.000766322
-0.00133141
-0.000868709
-0.00134839
-0.000973425
-0.00134268
-0.00107378
-0.00130105
-0.00115777
-0.00121206
-0.00120829
-0.00107054
-0.00120576
-0.000882075
-0.0011336
-0.000665025
-0.000985676
-0.000448201
-0.000773201
-0.000262641
-0.000527
-0.000129398
-0.000290597
-5.04621e-05
-0.000103128
-1.20843e-05
1.83644e-05
1.77243e-06
7.90887e-05
2.77096e-06
8.78817e-05
4.70266e-05
-3.85373e-05
8.74372e-05
-0.000109584
0.000213068
-0.000198199
0.000338971
-0.000300652
0.000478326
-0.000413899
0.000624281
-0.000532855
0.000765409
-0.000650774
0.000889852
-0.000760676
0.000987222
-0.000856714
0.00105062
-0.000934986
0.00107761
-0.000993834
0.0010699
-0.00103378
0.00103244
-0.0010572
0.000972089
-0.00106773
0.000896313
-0.0010695
0.000811945
-0.00106637
0.000724326
-0.00106142
0.000636947
-0.0010567
0.000551586
-0.00105331
0.000468751
-0.00105165
0.000388195
-0.00105167
0.000309353
-0.00105313
0.000231614
-0.00105574
0.000154454
-0.00105928
7.74655e-05
-0.00106363
3.45333e-07
-0.00106876
-7.71576e-05
-0.00107479
-0.000155107
-0.00108198
-0.00023362
-0.00109076
-0.000312826
-0.00110184
-0.000392945
-0.00111619
-0.000474385
-0.00113497
-0.000557875
-0.00115928
-0.000644587
-0.00118949
-0.000736118
-0.0012241
-0.0008341
-0.00125837
-0.000939147
-0.00128317
-0.00104898
-0.00128492
-0.00115602
-0.0012477
-0.00124551
-0.0011577
-0.00129577
-0.00100928
-0.00128203
-0.000810487
-0.00118447
-0.000585115
-0.000998573
-0.000368259
-0.000743857
-0.000194296
-0.000464561
-8.11555e-05
-0.000216269
-2.28575e-05
-3.99361e-05
-2.52044e-07
5.64782e-05
3.11072e-06
8.45169e-05
5.01368e-05
-4.41011e-05
0.000131537
-0.000122295
0.000291258
-0.000216718
0.000433391
-0.000322491
0.000584096
-0.000435521
0.00073731
-0.000549948
0.000879834
-0.000658908
0.00099881
-0.00075601
0.00108432
-0.000836499
0.00113111
-0.000897866
0.00113897
-0.000939982
0.00111202
-0.000964873
0.00105733
-0.000976152
0.000983367
-0.000978178
0.000898338
-0.000975164
0.000808931
-0.000970489
0.00071965
-0.000966374
0.000632832
-0.000963939
0.000549151
-0.000963475
0.000468286
-0.000964792
0.000389511
-0.000967503
0.000312064
-0.000971216
0.000235327
-0.000975619
0.000158857
-0.000980508
8.2355e-05
-0.000985778
5.61474e-06
-0.000991394
-7.15405e-05
-0.00099739
-0.000149111
-0.00100386
-0.000227151
-0.001011
-0.000305688
-0.00101918
-0.000384765
-0.00102906
-0.000464503
-0.0010417
-0.000545234
-0.00105858
-0.000627703
-0.0010814
-0.0007133
-0.00111133
-0.000804166
-0.00114766
-0.000902819
-0.00118582
-0.00101082
-0.00121568
-0.00112616
-0.00122135
-0.00123984
-0.00118398
-0.00133314
-0.00108774
-0.00137826
-0.000927798
-0.00134441
-0.000716814
-0.00120956
-0.000486093
-0.000974578
-0.000277468
-0.000673186
-0.000125794
-0.000367945
-4.05131e-05
-0.000125219
-4.96886e-06
2.09329e-05
2.81833e-06
7.67255e-05
5.29548e-05
-4.7541e-05
0.000179076
-0.00013001
0.000373726
-0.000227102
0.000530482
-0.000332815
0.000689808
-0.000442263
0.000846757
-0.000549247
0.000986817
-0.000647213
0.00109677
-0.000730647
0.00116776
-0.000796043
0.00119651
-0.000842325
0.00118525
-0.000870816
0.00114051
-0.000884777
0.00107129
-0.000888583
0.000987172
-0.00088672
0.000896474
-0.000882919
0.00080513
-0.000879681
0.000716412
-0.000878251
0.000631402
-0.000878912
0.000549812
-0.000881389
0.000470764
-0.000885203
0.000393326
-0.000889897
0.000316758
-0.000895131
0.000240562
-0.000900701
0.000164428
-0.000906509
8.81639e-05
-0.000912525
1.16327e-05
-0.000918754
-6.53103e-05
-0.0009252
-0.000142664
-0.00093187
-0.00022048
-0.000938779
-0.000298778
-0.000946002
-0.000377541
-0.000953765
-0.000456739
-0.000962606
-0.000536393
-0.000973571
-0.000616738
-0.000988367
-0.000698503
-0.00100924
-0.000783297
-0.00103818
-0.000873873
-0.00107522
-0.000973776
-0.00111579
-0.0010856
-0.00114831
-0.00120732
-0.00115404
-0.00132741
-0.00111102
-0.00142128
-0.00100231
-0.00145312
-0.000826092
-0.00138578
-0.000602698
-0.00119797
-0.000373084
-0.000902801
-0.000184542
-0.000556486
-6.63385e-05
-0.000243423
-1.28804e-05
-3.25298e-05
1.7971e-06
6.20472e-05
5.47516e-05
-4.85666e-05
0.000227643
-0.000132319
0.000457478
-0.000229051
0.000627214
-0.000331723
0.00079248
-0.000434947
0.000949981
-0.000532569
0.00108444
-0.000618649
0.00118285
-0.000688716
0.00123782
-0.000740546
0.00124834
-0.000774408
0.00121912
-0.000792827
0.00115892
-0.000799871
0.00107833
-0.00080013
0.00098743
-0.000797685
0.00089403
-0.000795425
0.00080287
-0.000794864
0.000715852
-0.000796394
0.000632933
-0.000799732
0.00055315
-0.00080434
0.000475373
-0.00080971
0.000398697
-0.000815484
0.000322533
-0.000821468
0.000246548
-0.000827597
0.000170559
-0.000833881
9.44505e-05
-0.000840364
1.81178e-05
-0.000847091
-5.85809e-05
-0.000854076
-0.000135677
-0.000861309
-0.000213245
-0.000868739
-0.000291347
-0.000876284
-0.000369995
-0.000883876
-0.000449145
-0.00089157
-0.000528698
-0.000899738
-0.000608568
-0.000909367
-0.000688873
-0.000922345
-0.000770318
-0.000941449
-0.000854769
-0.000969489
-0.000945735
-0.00100709
-0.001048
-0.00104921
-0.0011652
-0.00108205
-0.00129456
-0.00108326
-0.00142007
-0.00102791
-0.00150847
-0.000899831
-0.00151386
-0.000703778
-0.00139403
-0.000471527
-0.00113505
-0.000254682
-0.000773331
-0.000100992
-0.000397114
-2.41153e-05
-0.000109405
5.60527e-08
3.78721e-05
5.48074e-05
-4.71328e-05
0.000274775
-0.000129269
0.000539616
-0.000222908
0.000720856
-0.000320091
0.000889664
-0.000415207
0.0010451
-0.000502445
0.00117168
-0.000576666
0.00125708
-0.000634491
0.00129565
-0.000674897
0.00128874
-0.000699284
0.0012435
-0.000711004
0.00117064
-0.000714448
0.00108178
-0.000713936
0.000986919
-0.000712802
0.000892897
-0.000712982
0.000803051
-0.000715127
0.000717999
-0.000719047
0.000636855
-0.000724192
0.000558297
-0.00073001
0.000481193
-0.000736113
0.000404802
-0.000742306
0.000328729
-0.000748544
0.000252788
-0.000754868
0.000176886
-0.000761357
0.000100943
-0.000768094
2.48578e-05
-0.00077515
-5.15217e-05
-0.000782554
-0.00012827
-0.000790311
-0.000205485
-0.000798378
-0.000283277
-0.000806651
-0.00036172
-0.000814961
-0.000440832
-0.000823114
-0.000520543
-0.000830991
-0.000600689
-0.000838798
-0.000681065
-0.000847457
-0.000761658
-0.000859055
-0.00084317
-0.000876944
-0.000927845
-0.000904722
-0.00102022
-0.000943306
-0.00112662
-0.000986365
-0.00125151
-0.00101663
-0.00138981
-0.00100735
-0.00151775
-0.000931664
-0.00158954
-0.000777654
-0.00154804
-0.000561714
-0.00135099
-0.000330616
-0.00100443
-0.000144106
-0.000583623
-3.90143e-05
-0.000214501
-2.53629e-06
1.39462e-06
5.2271e-05
-4.33901e-05
0.000318168
-0.00012126
0.000617488
-0.000209482
0.000809081
-0.000299307
0.000979491
-0.000385126
0.00113092
-0.00046168
0.00124823
-0.000524714
0.00132011
-0.000571893
0.00134283
-0.000603216
0.00132007
-0.000620899
0.00126119
-0.000628709
0.00117846
-0.000630924
0.00108399
-0.000631262
0.000987258
-0.000632182
0.000893819
-0.000634767
0.000805637
-0.000639054
0.000722287
-0.000644555
0.000642359
-0.000650693
0.000564438
-0.000657039
0.000487542
-0.000663376
0.000411143
-0.00066966
0.000335017
-0.000675948
0.00025908
-0.000682339
0.000183281
-0.000688938
0.000107546
-0.000695834
3.17582e-05
-0.000703104
-4.42478e-05
-0.000710783
-0.000120587
-0.000718895
-0.00019737
-0.000727426
-0.000274742
-0.000736311
-0.000352833
-0.000745407
-0.000431733
-0.000754482
-0.000511466
-0.000763228
-0.00059194
-0.000771377
-0.000672914
-0.000778982
-0.000754051
-0.000786946
-0.000835204
-0.000797647
-0.000917143
-0.000815119
-0.00100275
-0.000843686
-0.00109805
-0.000883963
-0.00121123
-0.000926932
-0.00134684
-0.000950232
-0.00149445
-0.000922471
-0.0016173
-0.000817595
-0.00165291
-0.000633686
-0.0015349
-0.00040482
-0.00123329
-0.000193691
-0.000794753
-5.81385e-05
-0.000350051
-6.02695e-06
-5.07186e-05
4.6244e-05
-3.76365e-05
0.000355806
-0.000108935
0.000688792
-0.000189864
0.000890014
-0.000271005
0.00106063
-0.000346916
0.00120683
-0.000413006
0.00131432
-0.000465908
0.00137302
-0.000504197
0.00138112
-0.000528648
0.00134452
-0.000541947
0.00127449
-0.000547891
0.0011844
-0.000550326
0.00108643
-0.000552213
0.000989147
-0.000555192
0.000896801
-0.000559697
0.000810145
-0.000565418
0.000728012
-0.000571799
0.000648743
-0.000578367
0.00057101
-0.000584862
0.000494041
-0.000591222
0.000417506
-0.000597504
0.000341303
-0.000603818
0.000265399
-0.000610279
0.000189747
-0.000616989
0.000114261
-0.000624028
3.88029e-05
-0.000631466
-3.68043e-05
-0.000639336
-0.000112712
-0.00064767
-0.000189032
-0.000656476
-0.000265932
-0.000665733
-0.000343572
-0.00067536
-0.000422102
-0.000685192
-0.000501631
-0.00069494
-0.000582189
-0.000704201
-0.00066365
-0.000712571
-0.000745679
-0.000719997
-0.000827776
-0.000727459
-0.00090968
-0.000737801
-0.000992405
-0.000755911
-0.00107994
-0.000786632
-0.00118051
-0.000829136
-0.00130434
-0.000869621
-0.00145396
-0.000878985
-0.00160793
-0.000822518
-0.00170938
-0.000680652
-0.00167677
-0.000469586
-0.00144436
-0.000245888
-0.00101845
-8.15594e-05
-0.000514382
-1.04052e-05
-0.000121871
3.5839e-05
-3.02569e-05
0.000386067
-9.30638e-05
0.000751604
-0.00016526
0.000962214
-0.000236861
0.00113224
-0.000302686
0.00127266
-0.000358858
0.0013705
-0.000402832
0.00141699
-0.000433915
0.0014122
-0.000453379
0.00136399
-0.000464051
0.00128516
-0.000469455
0.00118981
-0.000472821
0.0010898
-0.000476352
0.000992682
-0.000481022
0.000901473
-0.000486851
0.000815978
-0.000493398
0.000734563
-0.000500173
0.000655522
-0.000506858
0.000577699
-0.000513348
0.000500535
-0.000519683
0.000423847
-0.000525977
0.000347602
-0.000532353
0.000271781
-0.000538921
0.000196321
-0.000545768
0.000121114
-0.000552961
4.60029e-05
-0.000560561
-2.91973e-05
-0.000568595
-0.000104672
-0.000577094
-0.000180528
-0.000586076
-0.000256944
-0.000595544
-0.0003341
-0.000605467
-0.000412174
-0.000615757
-0.000491338
-0.000626223
-0.000571719
-0.000636526
-0.000653345
-0.000646167
-0.000736034
-0.000654628
-0.000819313
-0.000661815
-0.000902491
-0.000668959
-0.000985259
-0.00067966
-0.00106923
-0.000699818
-0.00116035
-0.000734194
-0.00126996
-0.000778482
-0.00140967
-0.000811309
-0.00157511
-0.000796239
-0.00172445
-0.000699909
-0.0017731
-0.000518732
-0.00162553
-0.000295774
-0.00124141
-0.00010829
-0.000701864
-1.56767e-05
-0.000214483
2.01625e-05
-2.16818e-05
0.000407752
-7.44588e-05
0.000804387
-0.000136866
0.00102463
-0.000198444
0.00119382
-0.000254297
0.00132852
-0.000301254
0.00141746
-0.000337484
0.00145323
-0.000362824
0.00143755
-0.000378774
0.00137994
-0.000388027
0.00129442
-0.000393631
0.00119542
-0.000398139
0.00109431
-0.000403085
0.000997632
-0.000408965
0.000907358
-0.00041559
0.000822606
-0.000422524
0.000741501
-0.000429405
0.000662408
-0.000436065
0.000584364
-0.000442506
0.000506982
-0.000448831
0.000430178
-0.000455169
0.000353946
-0.000461637
0.000278256
-0.000468331
0.000203022
-0.000475325
0.000128116
-0.000482677
5.33634e-05
-0.000490444
-2.14228e-05
-0.000498644
-9.64645e-05
-0.000507305
-0.00017186
-0.000516446
-0.000247797
-0.000526075
-0.000324465
-0.000536188
-0.000402056
-0.000546747
-0.000480774
-0.000557648
-0.000560813
-0.000568672
-0.000642317
-0.000579417
-0.000725286
-0.000589285
-0.000809442
-0.000597667
-0.000894107
-0.00060455
-0.000978374
-0.000611698
-0.00106208
-0.000623852
-0.00114819
-0.000647909
-0.0012459
-0.000687067
-0.00137051
-0.000730236
-0.00153194
-0.000745799
-0.00170888
-0.000692643
-0.00182625
-0.000548664
-0.00176951
-0.000338664
-0.00145141
-0.000136488
-0.00090404
-2.17156e-05
-0.000329254
-1.55241e-06
-1.23488e-05
0.000420106
-5.39114e-05
0.000845957
-0.000105787
0.00107651
-0.000157128
0.00124517
-0.000203295
0.00137469
-0.000241766
0.00145594
-0.000271301
0.00148277
-0.000292069
0.00145832
-0.00030557
0.00139345
-0.000314151
0.00130301
-0.000320278
0.00120155
-0.000325847
0.00109989
-0.000331854
0.00100364
-0.000338495
0.000914003
-0.000345509
0.000829626
-0.000352546
0.000748544
-0.000359379
0.000669247
-0.000365954
0.000590946
-0.000372343
0.000513378
-0.000378671
0.000436512
-0.000385063
0.000360346
-0.000391625
0.000284826
-0.000398437
0.000209843
-0.000405566
0.000135254
-0.000413069
6.08763e-05
-0.000421001
-1.34817e-05
-0.000429377
-8.80792e-05
-0.000438221
-0.000163009
-0.000447545
-0.000238467
-0.000457357
-0.000314646
-0.000467659
-0.000391749
-0.000478436
-0.000469992
-0.00048964
-0.000549605
-0.000501145
-0.000630808
-0.000512683
-0.000713744
-0.000523771
-0.00079835
-0.000533708
-0.000884167
-0.000541845
-0.000970234
-0.000548458
-0.00105547
-0.000556287
-0.00114036
-0.000571623
-0.00123056
-0.000601701
-0.00134043
-0.000645095
-0.00148854
-0.000679529
-0.00167445
-0.000662943
-0.00184284
-0.000558595
-0.00187386
-0.000371105
-0.00163889
-0.000163776
-0.00111137
-2.86679e-05
-0.00046436
-3.02198e-05
-2.66985e-06
0.00042278
-3.21694e-05
0.000875465
-7.30008e-05
0.00111735
-0.000114067
0.00128624
-0.0001509
0.00141153
-0.00018155
0.00148659
-0.000205242
0.00150646
-0.000222307
0.00147539
-0.00023406
0.00140521
-0.000242373
0.00131132
-0.000249083
0.00120826
-0.000255497
0.0011063
-0.000262208
0.00101036
-0.000269241
0.000921042
-0.000276358
0.000836749
-0.000283322
0.000755514
-0.000290022
0.000675954
-0.000296483
0.000597414
-0.000302811
0.000519713
-0.000309132
0.000442841
-0.000315562
0.000366785
-0.000322192
0.000291465
-0.000329094
0.000216755
-0.000336331
0.000142502
-0.000343965
6.85214e-05
-0.000352051
-5.38382e-06
-0.000360612
-7.95082e-05
-0.000369662
-0.000153949
-0.000379209
-0.000228912
-0.000389255
-0.000304593
-0.000399798
-0.000381198
-0.000410833
-0.00045895
-0.000422336
-0.000538097
-0.000434237
-0.000618902
-0.000446372
-0.000701605
-0.000458404
-0.000786314
-0.000469744
-0.000872823
-0.000479592
-0.000960384
-0.000487381
-0.00104768
-0.000494045
-0.00113369
-0.000503908
-0.0012207
-0.000524939
-0.0013194
-0.00056253
-0.00145095
-0.000605362
-0.00163162
-0.000616503
-0.00183169
-0.000550119
-0.00194024
-0.000391333
-0.00179768
-0.000187911
-0.00131479
-3.65534e-05
-0.000615715
-6.67722e-05
6.82196e-06
0.000415964
-9.87048e-06
0.000892166
-3.93609e-05
0.00114684
-7.01971e-05
0.00131708
-9.80427e-05
0.00143938
-0.000121415
0.00150997
-0.000139893
0.00152495
-0.00015384
0.00148934
-0.000164258
0.00141563
-0.000172467
0.00131954
-0.000179679
0.00121548
-0.000186688
0.00111332
-0.000193793
0.00101747
-0.000200944
0.0009282
-0.00020797
0.000843782
-0.000214745
0.000762297
-0.000221253
0.00068247
-0.000227569
0.000603738
-0.000233809
0.000525961
-0.000240092
0.000449134
-0.000246522
0.000373224
-0.00025318
0.000298133
-0.000260133
0.000223719
-0.000267444
0.000149824
-0.000275181
7.62713e-05
-0.000283404
2.85297e-06
-0.000292151
-7.07497e-05
-0.000301429
-0.00014466
-0.000311238
-0.000219094
-0.000321572
-0.00029425
-0.000332428
-0.000370335
-0.000343797
-0.000447574
-0.000355666
-0.000526222
-0.000367993
-0.000606569
-0.000380677
-0.000688916
-0.000393494
-0.000773493
-0.000406009
-0.000860305
-0.000417508
-0.000948881
-0.000427139
-0.00103804
-0.000434672
-0.00112616
-0.000442309
-0.00121306
-0.000456615
-0.00130509
-0.000486242
-0.00142132
-0.000529711
-0.00158814
-0.000559375
-0.00180203
-0.000526426
-0.00197319
-0.000399238