/*--------------------------------*- C++ -*----------------------------------*\
  =========                 |
  \\      /  F ield         | OpenFOAM: The Open Source CFD Toolbox
   \\    /   O peration     | Website:  https://openfoam.org
    \\  /    A nd           | Version:  7
     \\/     M anipulation  |
\*---------------------------------------------------------------------------*/
FoamFile
{
    version     2.0;
    format      ascii;
    class       volVectorField;
    location    "150";
    object      U;
}
// * * * * * * * * * * * * * * * * * * * * * * * * * * * * * * * * * * * * * //

dimensions      [0 1 -1 0 0 0 0];

internalField   nonuniform List<vector> 
2500
(
(0.000193207 -0.000227672 0)
(0.00186065 -0.000588778 0)
(0.00449457 -0.000707429 0)
(0.00718825 -0.000606589 0)
(0.00924603 -0.000423905 0)
(0.0104545 -0.000269076 0)
(0.0109206 -0.000193619 0)
(0.0108563 -0.000192312 0)
(0.0104051 -0.000226371 0)
(0.00955608 -0.00025082 0)
(0.00815426 -0.000231788 0)
(0.00596262 -0.00015052 0)
(0.00271943 2.16452e-06 0)
(-0.0018237 0.000231602 0)
(-0.00787643 0.000541278 0)
(-0.0155763 0.000935747 0)
(-0.0249505 0.00141619 0)
(-0.0358742 0.00197225 0)
(-0.0480342 0.00257166 0)
(-0.0609079 0.00315218 0)
(-0.0737687 0.00362297 0)
(-0.0857216 0.00387739 0)
(-0.0957714 0.00381393 0)
(-0.102921 0.00336239 0)
(-0.106282 0.00250972 0)
(-0.10515 0.00130774 0)
(-0.0991995 -0.000118366 0)
(-0.08847 -0.00160011 0)
(-0.073385 -0.00296264 0)
(-0.0547577 -0.00403557 0)
(-0.033765 -0.00467256 0)
(-0.011895 -0.00475637 0)
(0.00930586 -0.00419336 0)
(0.0283465 -0.00308992 0)
(0.0438953 -0.00169638 0)
(0.0549117 -0.000196906 0)
(0.0609257 0.00121076 0)
(0.0620758 0.0023133 0)
(0.0590844 0.00297102 0)
(0.0531005 0.00315591 0)
(0.0453623 0.00296935 0)
(0.0370009 0.00256281 0)
(0.0288923 0.00207546 0)
(0.0215962 0.00160405 0)
(0.0153745 0.00120139 0)
(0.010261 0.000886056 0)
(0.00615932 0.000649446 0)
(0.00298203 0.000450894 0)
(0.000832963 0.000204783 0)
(-7.54571e-05 -8.05804e-05 0)
(0.000566819 -0.00187396 0)
(0.00439088 -0.00437226 0)
(0.00960333 -0.00515326 0)
(0.0146031 -0.00445477 0)
(0.0181164 -0.00299523 0)
(0.0196644 -0.00144471 0)
(0.0192882 -0.00017265 0)
(0.0171937 0.000796348 0)
(0.0134544 0.00167664 0)
(0.00786554 0.00274931 0)
(-2.32838e-05 0.00423121 0)
(-0.0107804 0.00622693 0)
(-0.0249422 0.00874017 0)
(-0.0428748 0.0117039 0)
(-0.0646554 0.0149788 0)
(-0.0899675 0.0183366 0)
(-0.118037 0.0214532 0)
(-0.147652 0.0239326 0)
(-0.177271 0.025363 0)
(-0.205201 0.0253852 0)
(-0.229777 0.0237497 0)
(-0.249513 0.0203525 0)
(-0.263205 0.0152506 0)
(-0.269987 0.00866531 0)
(-0.269368 0.000973954 0)
(-0.261256 -0.00731939 0)
(-0.245853 -0.0156411 0)
(-0.22357 -0.0234416 0)
(-0.195139 -0.0301582 0)
(-0.161612 -0.0352506 0)
(-0.124362 -0.0382445 0)
(-0.0850635 -0.0387803 0)
(-0.0456133 -0.036665 0)
(-0.00798894 -0.0320362 0)
(0.0259491 -0.0253625 0)
(0.0544894 -0.0173631 0)
(0.0762912 -0.00886159 0)
(0.090523 -0.000734161 0)
(0.0970338 0.00615866 0)
(0.096286 0.0111928 0)
(0.0896838 0.0141176 0)
(0.0789941 0.0150919 0)
(0.0660517 0.0145607 0)
(0.0524868 0.0130771 0)
(0.0395234 0.0111574 0)
(0.0279029 0.00918344 0)
(0.0179526 0.00733212 0)
(0.00980587 0.00551623 0)
(0.0037885 0.00341305 0)
(0.000340208 0.000956252 0)
(0.000791989 -0.0045542 0)
(0.00569624 -0.00976432 0)
(0.0116952 -0.0109508 0)
(0.0168157 -0.00899152 0)
(0.0195745 -0.0053682 0)
(0.0193998 -0.00138169 0)
(0.0162063 0.0022736 0)
(0.00997814 0.0055927 0)
(0.000470402 0.00902604 0)
(-0.0128702 0.0131442 0)
(-0.0307677 0.0183277 0)
(-0.0538506 0.0246464 0)
(-0.0824107 0.0318796 0)
(-0.116189 0.0395516 0)
(-0.15427 0.0469687 0)
(-0.195138 0.0533013 0)
(-0.236869 0.0577223 0)
(-0.277408 0.0595493 0)
(-0.314828 0.0583438 0)
(-0.347513 0.0539481 0)
(-0.374246 0.0464669 0)
(-0.394209 0.0362157 0)
(-0.406916 0.0236615 0)
(-0.412131 0.00937342 0)
(-0.409796 -0.00601217 0)
(-0.399909 -0.0218257 0)
(-0.382483 -0.0373782 0)
(-0.357764 -0.0518988 0)
(-0.326199 -0.0645603 0)
(-0.288509 -0.0745196 0)
(-0.245734 -0.0809851 0)
(-0.199265 -0.0833131 0)
(-0.150822 -0.0811243 0)
(-0.102395 -0.0744202 0)
(-0.0561013 -0.063679 0)
(-0.0139876 -0.0498771 0)
(0.0222042 -0.0342847 0)
(0.0510438 -0.018383 0)
(0.0717619 -0.0034803 0)
(0.0841439 0.00921298 0)
(0.0883017 0.0187447 0)
(0.0854337 0.0246838 0)
(0.0772185 0.0272046 0)
(0.0655367 0.0269644 0)
(0.0522011 0.0248543 0)
(0.0387047 0.0217398 0)
(0.0260882 0.0182108 0)
(0.01503 0.0143582 0)
(0.00629505 0.00969945 0)
(0.000713105 0.00365536 0)
(0.000922442 -0.00778513 0)
(0.00604375 -0.0156382 0)
(0.0114375 -0.0165124 0)
(0.0149236 -0.0123431 0)
(0.0150105 -0.0055512 0)
(0.0111405 0.00194985 0)
(0.00307627 0.00927312 0)
(-0.00955367 0.0165522 0)
(-0.027435 0.024562 0)
(-0.0513896 0.0340469 0)
(-0.0820379 0.0452649 0)
(-0.119437 0.0578465 0)
(-0.162858 0.0708867 0)
(-0.210782 0.0831393 0)
(-0.261115 0.0932646 0)
(-0.31154 0.100082 0)
(-0.359878 0.102761 0)
(-0.404342 0.100908 0)
(-0.443641 0.0945344 0)
(-0.476949 0.0839634 0)
(-0.503803 0.0697084 0)
(-0.52396 0.0523686 0)
(-0.537273 0.0325631 0)
(-0.543617 0.0109074 0)
(-0.542853 -0.0119674 0)
(-0.534801 -0.0353664 0)
(-0.519319 -0.0584798 0)
(-0.496354 -0.0803726 0)
(-0.465975 -0.099999 0)
(-0.428445 -0.116224 0)
(-0.384321 -0.127898 0)
(-0.334547 -0.133979 0)
(-0.280524 -0.133708 0)
(-0.224133 -0.126803 0)
(-0.167657 -0.11361 0)
(-0.113583 -0.0951733 0)
(-0.0643018 -0.0731486 0)
(-0.0217719 -0.0495572 0)
(0.0127369 -0.0263591 0)
(0.0385754 -0.0053376 0)
(0.0557357 0.0122181 0)
(0.0643687 0.0253499 0)
(0.0655506 0.0336275 0)
(0.0608127 0.0373321 0)
(0.0519279 0.037332 0)
(0.0406883 0.0347525 0)
(0.028665 0.0305601 0)
(0.0171243 0.0251167 0)
(0.0074028 0.0178549 0)
(0.000861364 0.00744279 0)
(0.000998105 -0.011056 0)
(0.00552963 -0.0207963 0)
(0.00899437 -0.020193 0)
(0.00923927 -0.0126215 0)
(0.00494021 -0.00154331 0)
(-0.00442747 0.0106358 0)
(-0.0193523 0.0230459 0)
(-0.0406076 0.0361559 0)
(-0.0691251 0.0508993 0)
(-0.10552 0.0677653 0)
(-0.149622 0.0863292 0)
(-0.20027 0.105312 0)
(-0.255444 0.122952 0)
(-0.312637 0.137447 0)
(-0.369323 0.147332 0)
(-0.423339 0.151696 0)
(-0.47309 0.15022 0)
(-0.517561 0.143078 0)
(-0.556202 0.130763 0)
(-0.588768 0.11392 0)
(-0.615169 0.0932286 0)
(-0.63538 0.0693381 0)
(-0.649377 0.0428604 0)
(-0.65711 0.0143858 0)
(-0.658491 -0.0154796 0)
(-0.65339 -0.0460557 0)
(-0.641592 -0.0765323 0)
(-0.622804 -0.105944 0)
(-0.596705 -0.133147 0)
(-0.563016 -0.156809 0)
(-0.521623 -0.175454 0)
(-0.472736 -0.187583 0)
(-0.41707 -0.191878 0)
(-0.356002 -0.187469 0)
(-0.291649 -0.174222 0)
(-0.22679 -0.152954 0)
(-0.164587 -0.125472 0)
(-0.1081 -0.0943516 0)
(-0.0597251 -0.0624788 0)
(-0.0207805 -0.0324627 0)
(0.00852514 -0.00617833 0)
(0.0286122 0.015126 0)
(0.0399832 0.0307463 0)
(0.0438164 0.0404847 0)
(0.0416175 0.0448311 0)
(0.0350979 0.0448221 0)
(0.0260185 0.041557 0)
(0.0160518 0.0355658 0)
(0.00702915 0.0262041 0)
(0.00078686 0.0114327 0)
(0.000983369 -0.0139066 0)
(0.0040032 -0.0241161 0)
(0.0041929 -0.0205137 0)
(-0.000265117 -0.00819425 0)
(-0.0104348 0.00834174 0)
(-0.026891 0.0264549 0)
(-0.0503944 0.0455755 0)
(-0.0819175 0.0663756 0)
(-0.122123 0.0894652 0)
(-0.170736 0.114458 0)
(-0.226307 0.13983 0)
(-0.286442 0.163388 0)
(-0.34832 0.182912 0)
(-0.40924 0.196659 0)
(-0.467019 0.203623 0)
(-0.520148 0.20353 0)
(-0.567745 0.196677 0)
(-0.609397 0.183699 0)
(-0.645 0.165373 0)
(-0.674627 0.142494 0)
(-0.698461 0.115808 0)
(-0.71674 0.0859902 0)
(-0.729722 0.0536531 0)
(-0.73762 0.0193568 0)
(-0.740557 -0.0163635 0)
(-0.738542 -0.0529473 0)
(-0.731389 -0.08974 0)
(-0.718659 -0.125921 0)
(-0.699721 -0.160437 0)
(-0.673783 -0.191942 0)
(-0.640001 -0.218787 0)
(-0.597658 -0.239096 0)
(-0.546409 -0.250934 0)
(-0.486581 -0.252611 0)
(-0.419451 -0.243075 0)
(-0.347427 -0.222327 0)
(-0.273985 -0.191736 0)
(-0.203289 -0.154052 0)
(-0.13945 -0.113023 0)
(-0.0856137 -0.0725989 0)
(-0.0432485 -0.0360327 0)
(-0.0121025 -0.00532691 0)
(0.00898024 0.0187002 0)
(0.0212002 0.0357647 0)
(0.0259757 0.0460485 0)
(0.0249619 0.0502975 0)
(0.0199404 0.0494806 0)
(0.0127849 0.0440997 0)
(0.00562533 0.0333977 0)
(0.000576422 0.0148854 0)
(0.00081162 -0.0157462 0)
(0.00123604 -0.0243653 0)
(-0.00314048 -0.0160468 0)
(-0.0135573 0.00229107 0)
(-0.03079 0.0254325 0)
(-0.0555254 0.0508265 0)
(-0.0886538 0.0781729 0)
(-0.130877 0.107886 0)
(-0.181966 0.139631 0)
(-0.240374 0.17177 0)
(-0.303475 0.201776 0)
(-0.368187 0.227015 0)
(-0.431601 0.245424 0)
(-0.49141 0.255827 0)
(-0.54605 0.257931 0)
(-0.594634 0.25211 0)
(-0.636792 0.239138 0)
(-0.672517 0.219973 0)
(-0.702059 0.195603 0)
(-0.72586 0.16697 0)
(-0.744484 0.134919 0)
(-0.758554 0.100168 0)
(-0.768665 0.0633048 0)
(-0.775317 0.0247979 0)
(-0.778852 -0.0149699 0)
(-0.779428 -0.0556514 0)
(-0.77697 -0.0968629 0)
(-0.771036 -0.138079 0)
(-0.760887 -0.178525 0)
(-0.745436 -0.217072 0)
(-0.723308 -0.25216 0)
(-0.692953 -0.281781 0)
(-0.652884 -0.30356 0)
(-0.602026 -0.314995 0)
(-0.540159 -0.313864 0)
(-0.468379 -0.29879 0)
(-0.389413 -0.269838 0)
(-0.307615 -0.22897 0)
(-0.228456 -0.180077 0)
(-0.15746 -0.12837 0)
(-0.0988003 -0.0791438 0)
(-0.0541668 -0.0363794 0)
(-0.0227207 -0.00201476 0)
(-0.00230198 0.023713 0)
(0.0091198 0.0411424 0)
(0.013456 0.0508756 0)
(0.0126383 0.0536845 0)
(0.00868777 0.049915 0)
(0.00386429 0.038689 0)
(0.000348071 0.0174099 0)
(0.000418627 -0.0158232 0)
(-0.00290497 -0.0202776 0)
(-0.012955 -0.005641 0)
(-0.030248 0.0198388 0)
(-0.0553025 0.0506535 0)
(-0.0888624 0.0844911 0)
(-0.131599 0.120959 0)
(-0.183413 0.159614 0)
(-0.242857 0.198797 0)
(-0.307237 0.235731 0)
(-0.373268 0.267369 0)
(-0.437795 0.291234 0)
(-0.498284 0.305868 0)
(-0.553 0.310859 0)
(-0.600949 0.306611 0)
(-0.641738 0.294044 0)
(-0.675434 0.274339 0)
(-0.702465 0.248762 0)
(-0.723531 0.218541 0)
(-0.739509 0.184783 0)
(-0.75135 0.148408 0)
(-0.759974 0.110119 0)
(-0.766196 0.0704052 0)
(-0.770667 0.0295772 0)
(-0.773859 -0.0121854 0)
(-0.776048 -0.0547811 0)
(-0.777283 -0.0981212 0)
(-0.777275 -0.142035 0)
(-0.775416 -0.186138 0)
(-0.770672 -0.229709 0)
(-0.761548 -0.271561 0)
(-0.746086 -0.309913 0)
(-0.721983 -0.342346 0)
(-0.686879 -0.365882 0)
(-0.638819 -0.377283 0)
(-0.576894 -0.373594 0)
(-0.501922 -0.352922 0)
(-0.416971 -0.315297 0)
(-0.327428 -0.263331 0)
(-0.240348 -0.202296 0)
(-0.162964 -0.139236 0)
(-0.100647 -0.081122 0)
(-0.0552427 -0.0327429 0)
(-0.0250516 0.004252 0)
(-0.00667625 0.0304701 0)
(0.00280956 0.0468593 0)
(0.00592145 0.0542525 0)
(0.00498539 0.0529281 0)
(0.00236547 0.041977 0)
(0.000199308 0.0190031 0)
(-0.000235545 -0.0133101 0)
(-0.00835134 -0.0108054 0)
(-0.024847 0.0115158 0)
(-0.049473 0.0449997 0)
(-0.0825239 0.0843031 0)
(-0.124594 0.1272 0)
(-0.175723 0.17267 0)
(-0.234713 0.218993 0)
(-0.298988 0.263235 0)
(-0.36516 0.301931 0)
(-0.429823 0.332086 0)
(-0.490149 0.351809 0)
(-0.544142 0.360439 0)
(-0.590629 0.358335 0)
(-0.629149 0.346546 0)
(-0.659826 0.326511 0)
(-0.683258 0.299833 0)
(-0.700392 0.268101 0)
(-0.712386 0.23275 0)
(-0.720457 0.194965 0)
(-0.725753 0.15563 0)
(-0.729275 0.11533 0)
(-0.731833 0.0743863 0)
(-0.734041 0.0329194 0)
(-0.736356 -0.00909022 0)
(-0.739091 -0.0517502 0)
(-0.742381 -0.0951939 0)
(-0.746162 -0.139545 0)
(-0.750131 -0.184793 0)
(-0.753623 -0.230695 0)
(-0.75548 -0.27662 0)
(-0.753927 -0.321357 0)
(-0.746508 -0.362927 0)
(-0.730182 -0.398464 0)
(-0.701641 -0.424275 0)
(-0.657926 -0.436188 0)
(-0.597299 -0.430275 0)
(-0.520223 -0.403922 0)
(-0.430141 -0.35704 0)
(-0.33365 -0.293036 0)
(-0.239652 -0.21893 0)
(-0.157299 -0.144081 0)
(-0.0931477 -0.0774589 0)
(-0.0488721 -0.0245964 0)
(-0.0214924 0.0134768 0)
(-0.00621155 0.0383925 0)
(0.000730369 0.0515388 0)
(0.00241595 0.0535259 0)
(0.00151013 0.04366 0)
(0.00017912 0.0199572 0)
(-0.00114613 -0.00746245 0)
(-0.0148043 0.00475421 0)
(-0.038043 0.0357469 0)
(-0.0699289 0.0777612 0)
(-0.110474 0.125906 0)
(-0.159852 0.177666 0)
(-0.217201 0.230943 0)
(-0.280248 0.282671 0)
(-0.345657 0.329005 0)
(-0.409828 0.366337 0)
(-0.46961 0.392164 0)
(-0.522684 0.405405 0)
(-0.567636 0.40625 0)
(-0.603892 0.395822 0)
(-0.631603 0.375824 0)
(-0.651517 0.348236 0)
(-0.66482 0.315061 0)
(-0.672931 0.278123 0)
(-0.677298 0.238913 0)
(-0.679234 0.198526 0)
(-0.679827 0.157663 0)
(-0.679911 0.116693 0)
(-0.680086 0.0757356 0)
(-0.680766 0.0347346 0)
(-0.682263 -0.00647508 0)
(-0.684838 -0.0481222 0)
(-0.688639 -0.0904355 0)
(-0.693789 -0.133686 0)
(-0.700313 -0.178105 0)
(-0.70804 -0.223836 0)
(-0.716436 -0.270807 0)
(-0.724406 -0.318539 0)
(-0.730062 -0.365878 0)
(-0.730571 -0.410696 0)
(-0.722185 -0.449657 0)
(-0.700594 -0.478216 0)
(-0.661712 -0.491037 0)
(-0.602854 -0.482942 0)
(-0.524092 -0.450388 0)
(-0.429362 -0.393186 0)
(-0.326729 -0.315851 0)
(-0.227227 -0.227748 0)
(-0.142031 -0.141167 0)
(-0.0785707 -0.0672951 0)
(-0.0376628 -0.0120239 0)
(-0.0145011 0.0247733 0)
(-0.00306468 0.0456668 0)
(0.00108055 0.0522053 0)
(0.00137089 0.044358 0)
(0.000286374 0.0206933 0)
(-0.00224867 0.00222905 0)
(-0.0217433 0.0266366 0)
(-0.0515155 0.0668535 0)
(-0.0900395 0.117515 0)
(-0.136931 0.174236 0)
(-0.191731 0.233813 0)
(-0.252627 0.292868 0)
(-0.31654 0.347216 0)
(-0.3798 0.392591 0)
(-0.438962 0.425701 0)
(-0.491341 0.444816 0)
(-0.535221 0.449772 0)
(-0.569847 0.441651 0)
(-0.595339 0.422374 0)
(-0.612557 0.394313 0)
(-0.622895 0.359939 0)
(-0.628021 0.321519 0)
(-0.629605 0.280902 0)
(-0.629108 0.239418 0)
(-0.627669 0.197888 0)
(-0.626087 0.156718 0)
(-0.624871 0.116017 0)
(-0.624311 0.0757069 0)
(-0.62456 0.0356102 0)
(-0.625735 -0.00450554 0)
(-0.627987 -0.0448927 0)
(-0.631427 -0.08576 0)
(-0.636249 -0.127374 0)
(-0.642681 -0.170028 0)
(-0.650931 -0.214046 0)
(-0.661072 -0.259727 0)
(-0.672849 -0.307228 0)
(-0.685385 -0.356315 0)
(-0.696845 -0.405992 0)
(-0.704134 -0.45404 0)
(-0.702832 -0.496618 0)
(-0.687568 -0.528157 0)
(-0.653014 -0.541859 0)
(-0.595459 -0.530985 0)
(-0.51465 -0.49091 0)
(-0.415284 -0.421533 0)
(-0.307301 -0.329112 0)
(-0.204202 -0.226273 0)
(-0.119099 -0.12895 0)
(-0.0595384 -0.0504524 0)
(-0.0244022 0.00387761 0)
(-0.00664965 0.0360194 0)
(0.000450445 0.0491616 0)
(0.00173169 0.0445836 0)
(0.000482795 0.0215856 0)
(-0.00340095 0.0159533 0)
(-0.0285151 0.0545829 0)
(-0.0641425 0.10415 0)
(-0.108202 0.163108 0)
(-0.159809 0.227506 0)
(-0.217788 0.293177 0)
(-0.279531 0.355519 0)
(-0.341504 0.409613 0)
(-0.400063 0.451238 0)
(-0.452156 0.477754 0)
(-0.495694 0.488373 0)
(-0.529653 0.483934 0)
(-0.554031 0.466463 0)
(-0.569714 0.438695 0)
(-0.578251 0.4036 0)
(-0.581529 0.363961 0)
(-0.581434 0.322056 0)
(-0.579582 0.279503 0)
(-0.577173 0.237265 0)
(-0.574972 0.195776 0)
(-0.573387 0.15511 0)
(-0.572577 0.115138 0)
(-0.572555 0.0756469 0)
(-0.573265 0.0364026 0)
(-0.574672 -0.0028218 0)
(-0.576826 -0.0422369 0)
(-0.579787 -0.0819728 0)
(-0.583708 -0.122207 0)
(-0.588845 -0.16316 0)
(-0.595546 -0.205131 0)
(-0.604214 -0.24852 0)
(-0.615206 -0.293806 0)
(-0.628616 -0.341428 0)
(-0.643908 -0.39149 0)
(-0.659429 -0.443254 0)
(-0.67192 -0.494464 0)
(-0.676299 -0.540686 0)
(-0.666054 -0.575075 0)
(-0.634511 -0.58899 0)
(-0.576933 -0.573792 0)
(-0.492981 -0.523752 0)
(-0.388614 -0.439375 0)
(-0.276264 -0.329772 0)
(-0.172229 -0.212131 0)
(-0.0910981 -0.106657 0)
(-0.0391117 -0.0279321 0)
(-0.011866 0.0208891 0)
(-0.000437075 0.0439336 0)
(0.00218956 0.0444569 0)
(0.000711535 0.0228234 0)
(-0.00444272 0.0335079 0)
(-0.0344762 0.0878752 0)
(-0.0748856 0.146531 0)
(-0.123026 0.212991 0)
(-0.177466 0.283656 0)
(-0.236363 0.353304 0)
(-0.296571 0.416341 0)
(-0.354435 0.467541 0)
(-0.406591 0.503103 0)
(-0.450536 0.521274 0)
(-0.484872 0.522337 0)
(-0.509345 0.508207 0)
(-0.524746 0.481874 0)
(-0.532678 0.446804 0)
(-0.535191 0.406362 0)
(-0.534377 0.363359 0)
(-0.532017 0.319792 0)
(-0.529398 0.27683 0)
(-0.527285 0.234958 0)
(-0.526011 0.194212 0)
(-0.525628 0.154388 0)
(-0.526041 0.115208 0)
(-0.527099 0.0764022 0)
(-0.528657 0.0377453 0)
(-0.530612 -0.000943246 0)
(-0.532964 -0.0398138 0)
(-0.535738 -0.0789159 0)
(-0.539005 -0.118336 0)
(-0.542935 -0.15818 0)
(-0.547806 -0.198619 0)
(-0.554034 -0.239946 0)
(-0.562171 -0.282627 0)
(-0.572838 -0.327329 0)
(-0.586504 -0.374814 0)
(-0.603045 -0.425605 0)
(-0.621084 -0.479309 0)
(-0.637244 -0.533633 0)
(-0.645738 -0.58338 0)
(-0.638789 -0.620037 0)
(-0.608291 -0.632624 0)
(-0.548623 -0.610292 0)
(-0.459869 -0.54645 0)
(-0.350082 -0.443298 0)
(-0.234993 -0.314577 0)
(-0.133845 -0.183668 0)
(-0.061499 -0.0750811 0)
(-0.020622 -0.00244219 0)
(-0.00262043 0.0352892 0)
(0.00231732 0.0435759 0)
(0.000921785 0.0243535 0)
(-0.00522883 0.0542869 0)
(-0.039084 0.125415 0)
(-0.0829238 0.192592 0)
(-0.133511 0.265415 0)
(-0.18888 0.340629 0)
(-0.246672 0.41203 0)
(-0.303478 0.473359 0)
(-0.355782 0.519465 0)
(-0.400676 0.547257 0)
(-0.436302 0.556041 0)
(-0.462013 0.54727 0)
(-0.478342 0.523962 0)
(-0.486803 0.489993 0)
(-0.489517 0.449353 0)
(-0.488741 0.4055 0)
(-0.486442 0.360955 0)
(-0.484032 0.317201 0)
(-0.482317 0.274845 0)
(-0.4816 0.233907 0)
(-0.481862 0.194109 0)
(-0.482926 0.155091 0)
(-0.484584 0.116528 0)
(-0.486653 0.0781678 0)
(-0.488993 0.0398336 0)
(-0.491515 0.00140087 0)
(-0.494216 -0.0372333 0)
(-0.497118 -0.0760697 0)
(-0.500221 -0.115144 0)
(-0.503595 -0.154482 0)
(-0.507369 -0.194135 0)
(-0.511788 -0.234222 0)
(-0.51727 -0.275013 0)
(-0.524453 -0.317028 0)
(-0.534181 -0.361116 0)
(-0.547297 -0.408399 0)
(-0.564126 -0.459888 0)
(-0.583598 -0.515587 0)
(-0.60219 -0.573085 0)
(-0.613266 -0.626089 0)
(-0.607592 -0.66382 0)
(-0.5756 -0.672342 0)
(-0.511169 -0.638416 0)
(-0.415711 -0.555388 0)
(-0.300597 -0.429133 0)
(-0.185725 -0.280631 0)
(-0.0927945 -0.14101 0)
(-0.0344166 -0.0374555 0)
(-0.00689023 0.0213255 0)
(0.00181739 0.0410748 0)
(0.00108802 0.025921 0)
(-0.00564597 0.0773579 0)
(-0.0419539 0.165848 0)
(-0.0877318 0.240781 0)
(-0.139114 0.318625 0)
(-0.193675 0.396577 0)
(-0.248727 0.467648 0)
(-0.300843 0.525247 0)
(-0.346831 0.564618 0)
(-0.384345 0.583599 0)
(-0.41222 0.582677 0)
(-0.430557 0.564516 0)
(-0.440599 0.533183 0)
(-0.444393 0.493249 0)
(-0.444293 0.448924 0)
(-0.442449 0.403429 0)
(-0.440447 0.358739 0)
(-0.439196 0.315704 0)
(-0.439022 0.274391 0)
(-0.439871 0.234463 0)
(-0.441513 0.195474 0)
(-0.443696 0.157028 0)
(-0.446217 0.118836 0)
(-0.448943 0.0807105 0)
(-0.451793 0.0425304 0)
(-0.454723 0.00421555 0)
(-0.457761 -0.0343101 0)
(-0.460932 -0.0730357 0)
(-0.464214 -0.111987 0)
(-0.467609 -0.151166 0)
(-0.471131 -0.190563 0)
(-0.474841 -0.23018 0)
(-0.478907 -0.270082 0)
(-0.483699 -0.310499 0)
(-0.489897 -0.351988 0)
(-0.49853 -0.395582 0)
(-0.510803 -0.442806 0)
(-0.527497 -0.495229 0)
(-0.547817 -0.553256 0)
(-0.567941 -0.614135 0)
(-0.580089 -0.669873 0)
(-0.573316 -0.706541 0)
(-0.536704 -0.706547 0)
(-0.464422 -0.654503 0)
(-0.360675 -0.545494 0)
(-0.241711 -0.392376 0)
(-0.132118 -0.226704 0)
(-0.0541009 -0.0876742 0)
(-0.0136894 -0.000275115 0)
(0.000554182 0.0358048 0)
(0.00121598 0.0271731 0)
(-0.00562715 0.101579 0)
(-0.0428836 0.207693 0)
(-0.0890971 0.289536 0)
(-0.139741 0.371014 0)
(-0.192036 0.449992 0)
(-0.243157 0.518957 0)
(-0.289847 0.571296 0)
(-0.329357 0.602897 0)
(-0.359949 0.612677 0)
(-0.381139 0.60237 0)
(-0.3937 0.575824 0)
(-0.399415 0.537994 0)
(-0.400605 0.493867 0)
(-0.399566 0.447545 0)
(-0.398096 0.401734 0)
(-0.397281 0.357727 0)
(-0.397538 0.315758 0)
(-0.398827 0.275473 0)
(-0.400895 0.236337 0)
(-0.403451 0.197869 0)
(-0.406274 0.159728 0)
(-0.409233 0.121706 0)
(-0.412271 0.0836825 0)
(-0.415368 0.0455864 0)
(-0.418526 0.00736122 0)
(-0.4218 -0.031062 0)
(-0.425229 -0.0696828 0)
(-0.428792 -0.108539 0)
(-0.43247 -0.147647 0)
(-0.436228 -0.186997 0)
(-0.440021 -0.226556 0)
(-0.443827 -0.266277 0)
(-0.447724 -0.306164 0)
(-0.452012 -0.346398 0)
(-0.457381 -0.387561 0)
(-0.465031 -0.430902 0)
(-0.476533 -0.478419 0)
(-0.493104 -0.532319 0)
(-0.514101 -0.593333 0)
(-0.535067 -0.65788 0)
(-0.54661 -0.715251 0)
(-0.535804 -0.747144 0)
(-0.490833 -0.731752 0)
(-0.407607 -0.65272 0)
(-0.295234 -0.510394 0)
(-0.176458 -0.329579 0)
(-0.0798013 -0.15558 0)
(-0.0233236 -0.0321821 0)
(-0.00149701 0.0264839 0)
(0.0013233 0.0277431 0)
(-0.00515876 0.125721 0)
(-0.0418463 0.249458 0)
(-0.0870846 0.337404 0)
(-0.135661 0.421216 0)
(-0.184563 0.499745 0)
(-0.23099 0.565239 0)
(-0.271988 0.61132 0)
(-0.305308 0.6347 0)
(-0.32981 0.635462 0)
(-0.345625 0.616587 0)
(-0.35405 0.582989 0)
(-0.357181 0.540278 0)
(-0.357353 0.493547 0)
(-0.356574 0.446503 0)
(-0.356175 0.401172 0)
(-0.356749 0.358164 0)
(-0.358337 0.317207 0)
(-0.360692 0.277693 0)
(-0.363503 0.239035 0)
(-0.366524 0.20081 0)
(-0.369613 0.162773 0)
(-0.372723 0.124798 0)
(-0.375862 0.0868233 0)
(-0.379054 0.0488031 0)
(-0.382322 0.0106885 0)
(-0.385738 -0.0275938 0)
(-0.389349 -0.0660615 0)
(-0.393146 -0.104768 0)
(-0.397115 -0.143757 0)
(-0.40122 -0.18305 0)
(-0.405393 -0.222633 0)
(-0.409535 -0.26245 0)
(-0.41355 -0.30241 0)
(-0.41742 -0.342447 0)
(-0.421372 -0.382684 0)
(-0.426109 -0.42375 0)
(-0.433021 -0.467175 0)
(-0.444063 -0.515562 0)
(-0.460845 -0.571841 0)
(-0.482604 -0.63682 0)
(-0.503674 -0.705155 0)
(-0.512403 -0.761808 0)
(-0.493797 -0.782622 0)
(-0.436272 -0.74169 0)
(-0.339873 -0.624796 0)
(-0.221256 -0.443651 0)
(-0.110459 -0.241357 0)
(-0.0362052 -0.0771729 0)
(-0.00440808 0.0116817 0)
(0.001401 0.0272354 0)
(-0.0042727 0.148574 0)
(-0.0389588 0.289743 0)
(-0.0819727 0.383111 0)
(-0.127401 0.468151 0)
(-0.172111 0.545081 0)
(-0.213449 0.606187 0)
(-0.248844 0.645527 0)
(-0.276555 0.660747 0)
(-0.295983 0.65312 0)
(-0.30775 0.626799 0)
(-0.313489 0.587584 0)
(-0.315384 0.541469 0)
(-0.31557 0.493372 0)
(-0.315647 0.446413 0)
(-0.316469 0.401901 0)
(-0.318243 0.359851 0)
(-0.320782 0.319652 0)
(-0.32377 0.280593 0)
(-0.326938 0.242134 0)
(-0.330126 0.203958 0)
(-0.333279 0.165915 0)
(-0.336414 0.127943 0)
(-0.339579 0.0900113 0)
(-0.342815 0.0520847 0)
(-0.346149 0.0141092 0)
(-0.349654 -0.0239967 0)
(-0.353383 -0.0622689 0)
(-0.357336 -0.100772 0)
(-0.361506 -0.139572 0)
(-0.365876 -0.178722 0)
(-0.370397 -0.218251 0)
(-0.374976 -0.258143 0)
(-0.379474 -0.298322 0)
(-0.383724 -0.338646 0)
(-0.387626 -0.378973 0)
(-0.391344 -0.419377 0)
(-0.395627 -0.460581 0)
(-0.40211 -0.504539 0)
(-0.413185 -0.55467 0)
(-0.430734 -0.614669 0)
(-0.453379 -0.684804 0)
(-0.473353 -0.756275 0)
(-0.476037 -0.807381 0)
(-0.444871 -0.806795 0)
(-0.370811 -0.726478 0)
(-0.261505 -0.560816 0)
(-0.143634 -0.34215 0)
(-0.0525792 -0.137262 0)
(-0.00832507 -0.0101413 0)
(0.00140242 0.0252149 0)
(-0.00303757 0.169042 0)
(-0.0344411 0.327295 0)
(-0.074178 0.425603 0)
(-0.115632 0.511026 0)
(-0.155641 0.585563 0)
(-0.191782 0.641803 0)
(-0.221899 0.674377 0)
(-0.244728 0.681909 0)
(-0.260114 0.666819 0)
(-0.269017 0.634303 0)
(-0.273216 0.590825 0)
(-0.274784 0.542508 0)
(-0.27553 0.493887 0)
(-0.276618 0.447415 0)
(-0.278507 0.403741 0)
(-0.281147 0.362431 0)
(-0.284257 0.322691 0)
(-0.28755 0.283818 0)
(-0.29084 0.245373 0)
(-0.294053 0.207146 0)
(-0.297201 0.16906 0)
(-0.300338 0.131093 0)
(-0.303527 0.0932242 0)
(-0.306811 0.0554131 0)
(-0.310212 0.0175968 0)
(-0.313789 -0.0203145 0)
(-0.317604 -0.0583717 0)
(-0.32166 -0.0966446 0)
(-0.325951 -0.135213 0)
(-0.330477 -0.174153 0)
(-0.335215 -0.213526 0)
(-0.34011 -0.25337 0)
(-0.34505 -0.293667 0)
(-0.349858 -0.334317 0)
(-0.35431 -0.375117 0)
(-0.35823 -0.415842 0)
(-0.361751 -0.456538 0)
(-0.365737 -0.498138 0)
(-0.372181 -0.543275 0)
(-0.383959 -0.596472 0)
(-0.402955 -0.662045 0)
(-0.426294 -0.738347 0)
(-0.44289 -0.810269 0)
(-0.43479 -0.846552 0)
(-0.385657 -0.808793 0)
(-0.292943 -0.67265 0)
(-0.176003 -0.452575 0)
(-0.0718996 -0.212729 0)
(-0.0134653 -0.0406434 0)
(0.00130734 0.0212259 0)
(-0.00154502 0.1862 0)
(-0.0285754 0.361052 0)
(-0.0641863 0.46405 0)
(-0.101073 0.549303 0)
(-0.136107 0.621009 0)
(-0.167142 0.6723 0)
(-0.192436 0.698457 0)
(-0.211134 0.699067 0)
(-0.223413 0.6776 0)
(-0.230411 0.640122 0)
(-0.233875 0.593543 0)
(-0.235642 0.543908 0)
(-0.237139 0.495255 0)
(-0.23914 0.44938 0)
(-0.241822 0.406392 0)
(-0.245001 0.365559 0)
(-0.248398 0.326023 0)
(-0.251796 0.287157 0)
(-0.255094 0.24863 0)
(-0.258289 0.210321 0)
(-0.261431 0.172202 0)
(-0.264585 0.134263 0)
(-0.267819 0.0964795 0)
(-0.271168 0.0588014 0)
(-0.274645 0.0211548 0)
(-0.278295 -0.0165564 0)
(-0.282187 -0.0543952 0)
(-0.286327 -0.0924332 0)
(-0.290701 -0.130758 0)
(-0.29532 -0.169457 0)
(-0.300178 -0.208613 0)
(-0.305251 -0.248301 0)
(-0.310473 -0.288565 0)
(-0.315718 -0.329382 0)
(-0.320774 -0.370613 0)
(-0.325355 -0.411978 0)
(-0.329233 -0.453166 0)
(-0.332562 -0.494253 0)
(-0.336441 -0.536603 0)
(-0.343383 -0.583946 0)
(-0.356739 -0.642227 0)
(-0.377775 -0.715659 0)
(-0.400677 -0.797882 0)
(-0.40975 -0.863189 0)
(-0.38453 -0.868369 0)
(-0.312863 -0.771983 0)
(-0.20424 -0.565953 0)
(-0.0926766 -0.301647 0)
(-0.0200112 -0.081341 0)
(0.00115074 0.0148076 0)
(9.9908e-05 0.199333 0)
(-0.0216729 0.390144 0)
(-0.0524974 0.497833 0)
(-0.0844183 0.582658 0)
(-0.11438 0.651417 0)
(-0.14052 0.698006 0)
(-0.161483 0.718381 0)
(-0.176746 0.71302 0)
(-0.186691 0.686307 0)
(-0.192489 0.64499 0)
(-0.195729 0.596236 0)
(-0.197931 0.545873 0)
(-0.200153 0.497412 0)
(-0.202861 0.452074 0)
(-0.206057 0.409561 0)
(-0.20952 0.368972 0)
(-0.213018 0.329462 0)
(-0.216417 0.290504 0)
(-0.219685 0.251865 0)
(-0.222861 0.213485 0)
(-0.226011 0.175358 0)
(-0.229201 0.137474 0)
(-0.232491 0.0997949 0)
(-0.235914 0.0622616 0)
(-0.239471 0.0247905 0)
(-0.243195 -0.0127191 0)
(-0.247163 -0.0503405 0)
(-0.251387 -0.0881469 0)
(-0.255842 -0.12623 0)
(-0.26054 -0.164682 0)
(-0.265482 -0.203598 0)
(-0.270662 -0.243073 0)
(-0.276048 -0.283193 0)
(-0.281568 -0.324005 0)
(-0.287072 -0.36547 0)
(-0.292307 -0.407387 0)
(-0.296932 -0.449373 0)
(-0.300688 -0.491034 0)
(-0.303845 -0.532624 0)
(-0.307929 -0.576349 0)
(-0.316164 -0.627658 0)
(-0.332141 -0.693981 0)
(-0.355219 -0.777322 0)
(-0.374628 -0.86152 0)
(-0.369559 -0.905093 0)
(-0.320388 -0.853884 0)
(-0.225778 -0.675635 0)
(-0.112918 -0.400278 0)
(-0.0279365 -0.133253 0)
(0.000990978 0.00548465 0)
(0.00178966 0.207944 0)
(-0.0140492 0.413894 0)
(-0.0395878 0.526507 0)
(-0.066299 0.610924 0)
(-0.0912083 0.676899 0)
(-0.112716 0.719291 0)
(-0.129814 0.734717 0)
(-0.142228 0.724431 0)
(-0.150432 0.693569 0)
(-0.155509 0.649384 0)
(-0.158799 0.59915 0)
(-0.161485 0.548414 0)
(-0.1643 0.500195 0)
(-0.16749 0.455254 0)
(-0.170971 0.413011 0)
(-0.174539 0.372491 0)
(-0.178032 0.332905 0)
(-0.181384 0.293818 0)
(-0.184612 0.255074 0)
(-0.187775 0.216649 0)
(-0.190942 0.178542 0)
(-0.194171 0.140733 0)
(-0.197514 0.103174 0)
(-0.201005 0.0657941 0)
(-0.204639 0.0285042 0)
(-0.208431 -0.00880056 0)
(-0.212475 -0.0462021 0)
(-0.216793 -0.0837773 0)
(-0.221341 -0.121621 0)
(-0.226131 -0.159829 0)
(-0.231165 -0.1985 0)
(-0.236442 -0.23774 0)
(-0.241951 -0.277658 0)
(-0.247653 -0.318351 0)
(-0.253458 -0.359861 0)
(-0.259188 -0.402105 0)
(-0.264537 -0.444788 0)
(-0.269113 -0.487389 0)
(-0.272678 -0.529491 0)
(-0.275779 -0.571836 0)
(-0.280648 -0.618196 0)
(-0.291334 -0.676477 0)
(-0.310842 -0.754631 0)
(-0.334327 -0.847523 0)
(-0.344097 -0.92146 0)
(-0.316262 -0.915974 0)
(-0.239198 -0.77603 0)
(-0.130725 -0.503896 0)
(-0.0368695 -0.196154 0)
(0.00081895 -0.00716062 0)
(0.00342193 0.211784 0)
(-0.00600831 0.431763 0)
(-0.0258949 0.549768 0)
(-0.0472574 0.634047 0)
(-0.0672006 0.697624 0)
(-0.0843428 0.736512 0)
(-0.0979773 0.747944 0)
(-0.107999 0.733809 0)
(-0.114879 0.699821 0)
(-0.119525 0.653579 0)
(-0.12298 0.602364 0)
(-0.126095 0.55144 0)
(-0.129339 0.503416 0)
(-0.132813 0.458711 0)
(-0.136407 0.416573 0)
(-0.139965 0.376009 0)
(-0.143392 0.336297 0)
(-0.146674 0.297081 0)
(-0.149856 0.258256 0)
(-0.153004 0.219814 0)
(-0.156181 0.181752 0)
(-0.159438 0.144035 0)
(-0.162821 0.106606 0)
(-0.166366 0.0693883 0)
(-0.170066 0.0322885 0)
(-0.173915 -0.00480148 0)
(-0.178031 -0.0419744 0)
(-0.182451 -0.079311 0)
(-0.187109 -0.116912 0)
(-0.192014 -0.154874 0)
(-0.197168 -0.193299 0)
(-0.202569 -0.232297 0)
(-0.208213 -0.271988 0)
(-0.21408 -0.312498 0)
(-0.220119 -0.353927 0)
(-0.226215 -0.396293 0)
(-0.232145 -0.439433 0)
(-0.237542 -0.482902 0)
(-0.241978 -0.52603 0)
(-0.245347 -0.568556 0)
(-0.248737 -0.612361 0)
(-0.255425 -0.663916 0)
(-0.270026 -0.733889 0)
(-0.292927 -0.827004 0)
(-0.3119 -0.921599 0)
(-0.302385 -0.958206 0)
(-0.244254 -0.863168 0)
(-0.144723 -0.607679 0)
(-0.0461487 -0.268448 0)
(0.000521754 -0.0235087 0)
(0.00485912 0.210709 0)
(0.00215274 0.443468 0)
(-0.0118009 0.567387 0)
(-0.0277517 0.652039 0)
(-0.0428393 0.713772 0)
(-0.0558513 0.749974 0)
(-0.0663333 0.758434 0)
(-0.0742872 0.741514 0)
(-0.0801091 0.705334 0)
(-0.0844753 0.657703 0)
(-0.0881095 0.605862 0)
(-0.091556 0.554827 0)
(-0.0950726 0.506904 0)
(-0.098674 0.462286 0)
(-0.10226 0.420129 0)
(-0.105733 0.379456 0)
(-0.109055 0.339606 0)
(-0.112249 0.300281 0)
(-0.115373 0.261403 0)
(-0.118492 0.22297 0)
(-0.121661 0.184972 0)
(-0.124927 0.147362 0)
(-0.12833 0.110074 0)
(-0.13191 0.0730279 0)
(-0.135662 0.0361324 0)
(-0.139556 -0.000723638 0)
(-0.143734 -0.0376538 0)
(-0.148262 -0.0747346 0)
(-0.153046 -0.11208 0)
(-0.158091 -0.149787 0)
(-0.163396 -0.187959 0)
(-0.168959 -0.226707 0)
(-0.174776 -0.266157 0)
(-0.180837 -0.30645 0)
(-0.187111 -0.347724 0)
(-0.193525 -0.390069 0)
(-0.199925 -0.433443 0)
(-0.206027 -0.47754 0)
(-0.211405 -0.521708 0)
(-0.215649 -0.565192 0)
(-0.218984 -0.608367 0)
(-0.223455 -0.655476 0)
(-0.233597 -0.717038 0)
(-0.25326 -0.80464 0)
(-0.276455 -0.910245 0)
(-0.281245 -0.982308 0)
(-0.241657 -0.934825 0)
(-0.154223 -0.707378 0)
(-0.0550284 -0.347612 0)
(-8.00228e-05 -0.0439145 0)
(0.00596197 0.205019 0)
(0.0100761 0.448568 0)
(0.00239014 0.57932 0)
(-0.0081547 0.664926 0)
(-0.0184993 0.725509 0)
(-0.0275622 0.759914 0)
(-0.035106 0.766445 0)
(-0.0411923 0.747771 0)
(-0.0460976 0.71025 0)
(-0.0502352 0.661793 0)
(-0.0540078 0.609579 0)
(-0.0576805 0.55845 0)
(-0.0613416 0.510521 0)
(-0.0649552 0.465864 0)
(-0.0684505 0.423601 0)
(-0.0717864 0.382787 0)
(-0.0749724 0.342807 0)
(-0.0780563 0.303399 0)
(-0.0811007 0.264497 0)
(-0.0841663 0.226098 0)
(-0.0873037 0.18818 0)