/*--------------------------------*- C++ -*----------------------------------*\
  =========                 |
  \\      /  F ield         | OpenFOAM: The Open Source CFD Toolbox
   \\    /   O peration     | Website:  https://openfoam.org
    \\  /    A nd           | Version:  7
     \\/     M anipulation  |
\*---------------------------------------------------------------------------*/
FoamFile
{
    version     2.0;
    format      ascii;
    class       volScalarField;
    location    "1800";
    object      p;
}
// * * * * * * * * * * * * * * * * * * * * * * * * * * * * * * * * * * * * * //

dimensions      [0 2 -2 0 0 0 0];

internalField   nonuniform List<scalar> 
2500
(
7.29467e-08
7.08704e-05
-9.07134e-06
-0.00030788
-0.000782267
-0.0013698
-0.00203029
-0.00275922
-0.00358226
-0.00454009
-0.00567277
-0.00701019
-0.00856924
-0.0103497
-0.012328
-0.0144502
-0.0166241
-0.0187181
-0.0205672
-0.0219896
-0.0228103
-0.0228902
-0.0221538
-0.0206178
-0.018408
-0.0157508
-0.0129675
-0.0104757
-0.00873716
-0.00818943
-0.00916529
-0.0118012
-0.0159846
-0.0214199
-0.0276473
-0.0341053
-0.0402653
-0.0457265
-0.0502581
-0.0537852
-0.0563579
-0.0581112
-0.0592197
-0.0598593
-0.0601821
-0.060304
-0.060303
-0.0602217
-0.0600823
-0.0599432
-6.92462e-05
3.54919e-06
-8.02596e-05
-0.000376711
-0.000829094
-0.00137325
-0.00197406
-0.00263295
-0.00337852
-0.00425107
-0.00528943
-0.00652354
-0.0079741
-0.00964886
-0.0115362
-0.0135993
-0.0157673
-0.0179287
-0.0199307
-0.0215896
-0.0227131
-0.0231313
-0.0227305
-0.0214865
-0.0194944
-0.0169713
-0.0142543
-0.0117788
-0.0100255
-0.00945116
-0.0104042
-0.0130435
-0.0172846
-0.022778
-0.0290213
-0.0354663
-0.0415589
-0.0468582
-0.0511253
-0.0543335
-0.0566006
-0.0581082
-0.0590499
-0.0595983
-0.0598898
-0.0600214
-0.0600553
-0.0600206
-0.0599191
-0.0597874
-1.92911e-05
4.94004e-05
-5.75126e-05
-0.000379979
-0.000832386
-0.00133897
-0.00186956
-0.00243695
-0.00308219
-0.00385284
-0.00479299
-0.00594301
-0.00734093
-0.00902118
-0.0110037
-0.0132775
-0.0157821
-0.018396
-0.0209368
-0.0231781
-0.0248806
-0.0258306
-0.0258765
-0.0249673
-0.0231955
-0.0207884
-0.018083
-0.0155129
-0.0135709
-0.0127372
-0.0133934
-0.0157375
-0.0197242
-0.0250515
-0.0312106
-0.03758
-0.043582
-0.0487747
-0.0528775
-0.0558253
-0.0577483
-0.0588922
-0.0595107
-0.0598083
-0.0599297
-0.0599645
-0.0599593
-0.0599237
-0.0598278
-0.0596835
0.000227899
0.000265964
0.000101526
-0.000279775
-0.000755574
-0.0012369
-0.0017028
-0.00218538
-0.00274568
-0.00345476
-0.00438599
-0.00561883
-0.00723811
-0.00932083
-0.0119099
-0.0149851
-0.0184435
-0.0220968
-0.0256892
-0.02893
-0.0315349
-0.0332645
-0.033954
-0.0335397
-0.0320938
-0.0298189
-0.0270272
-0.02414
-0.0216522
-0.0200705
-0.019832
-0.0212161
-0.0242717
-0.0287854
-0.0343065
-0.040232
-0.0459396
-0.0509102
-0.0548489
-0.0576659
-0.0594128
-0.0603011
-0.0606123
-0.0606065
-0.0604678
-0.0603062
-0.060172
-0.0600661
-0.059936
-0.0597712
0.000707169
0.000677066
0.00041789
-4.42821e-05
-0.00055549
-0.00102939
-0.00146046
-0.00190868
-0.00247474
-0.00328056
-0.00446316
-0.00617036
-0.00854142
-0.0116719
-0.0155762
-0.0201636
-0.0252377
-0.0305177
-0.0356732
-0.0403632
-0.0442731
-0.0471456
-0.0488025
-0.0491592
-0.0482454
-0.0462066
-0.0433082
-0.0399354
-0.0365602
-0.0336977
-0.03184
-0.0313753
-0.0325049
-0.0351854
-0.0391161
-0.043792
-0.0486129
-0.0530181
-0.0566079
-0.0591951
-0.0608136
-0.0616199
-0.0618051
-0.0616197
-0.0612828
-0.0609375
-0.0606575
-0.0604559
-0.0602796
-0.0601027
0.0014623
0.00132828
0.000948915
0.0003973
-0.000168859
-0.000675376
-0.00114691
-0.00169628
-0.00249271
-0.00374235
-0.00567082
-0.00849218
-0.0123621
-0.0173318
-0.0233213
-0.0301228
-0.0374268
-0.044862
-0.052035
-0.0585657
-0.064117
-0.0684183
-0.0712816
-0.072608
-0.0723957
-0.0707291
-0.0678065
-0.0639481
-0.059562
-0.0551239
-0.0511365
-0.0480709
-0.0462927
-0.0459879
-0.0471102
-0.0493761
-0.0523227
-0.0554205
-0.0582026
-0.0603593
-0.0617704
-0.0624847
-0.0626663
-0.0624781
-0.0620914
-0.0616656
-0.0612998
-0.0610314
-0.0608261
-0.0606546
0.00253175
0.00226896
0.00176018
0.00110867
0.000451733
-0.000167491
-0.000837118
-0.00175279
-0.00318392
-0.00544062
-0.00882483
-0.0135659
-0.0197607
-0.0273426
-0.0360869
-0.0456454
-0.0555938
-0.065479
-0.0748587
-0.0833328
-0.0905666
-0.0963041
-0.100372
-0.10268
-0.103223
-0.102053
-0.0992944
-0.0951817
-0.0900182
-0.0841773
-0.0780904
-0.0722237
-0.067035
-0.0629137
-0.0601115
-0.0586855
-0.0584769
-0.0591471
-0.0602687
-0.0614401
-0.0623733
-0.062929
-0.0631064
-0.0629931
-0.0626933
-0.0623183
-0.0619676
-0.0616988
-0.0615031
-0.0613579
0.00392193
0.003523
0.00288398
0.00211028
0.00129504
0.000410553
-0.000728451
-0.00243111
-0.00508246
-0.00907659
-0.0147291
-0.0221963
-0.0314313
-0.0421899
-0.0540729
-0.066587
-0.0792052
-0.0914174
-0.102768
-0.112881
-0.121468
-0.12833
-0.133341
-0.13644
-0.137647
-0.137019
-0.13463
-0.130625
-0.125187
-0.118549
-0.110996
-0.10288
-0.0946143
-0.0866542
-0.0794605
-0.0734334
-0.0688372
-0.0657354
-0.063971
-0.0632115
-0.0630528
-0.0631342
-0.063211
-0.0631767
-0.0630273
-0.0628043
-0.0625705
-0.0623795
-0.0622394
-0.0621387
0.00557811
0.00504996
0.0042757
0.00333732
0.00223926
0.000843317
-0.00116265
-0.00421459
-0.00878989
-0.0152969
-0.0239655
-0.0347812
-0.0474828
-0.0616126
-0.0765932
-0.0918076
-0.106668
-0.120662
-0.133381
-0.144526
-0.153901
-0.161394
-0.166948
-0.170544
-0.172227
-0.172092
-0.170185
-0.166584
-0.161376
-0.15466
-0.146563
-0.137257
-0.126988
-0.116103
-0.105067
-0.0944508
-0.0848737
-0.0768947
-0.0708755
-0.0668668
-0.0645903
-0.0635483
-0.0632069
-0.0631518
-0.0631524
-0.0631328
-0.0630881
-0.0630413
-0.0629962
-0.0629512
0.0073499
0.00670671
0.00578607
0.00460108
0.00302301
0.000773002
-0.00260098
-0.00763981
-0.0148431
-0.0245283
-0.0367315
-0.0511871
-0.0673796
-0.084638
-0.102241
-0.11951
-0.135869
-0.15088
-0.164241
-0.17577
-0.185381
-0.193053
-0.198794
-0.20262
-0.204594
-0.20484
-0.203397
-0.200306
-0.195599
-0.189295
-0.181405
-0.171943
-0.160959
-0.148581
-0.135086
-0.120951
-0.106886
-0.0937826
-0.0825629
-0.0739343
-0.0681467
-0.0648993
-0.0634906
-0.0631293
-0.0632045
-0.063386
-0.0635661
-0.0637041
-0.0637791
-0.0637937
0.00897934
0.0082401
0.0071376
0.00557303
0.00324931
-0.000266555
-0.00554993
-0.0131832
-0.0235841
-0.0368658
-0.0527828
-0.0707747
-0.0900764
-0.109852
-0.129315
-0.147816
-0.164878
-0.180198
-0.193614
-0.205066
-0.214564
-0.222151
-0.227878
-0.231781
-0.233926
-0.234439
-0.233355
-0.230703
-0.226501
-0.220742
-0.213388
-0.204371
-0.193604
-0.181022
-0.16664
-0.150658
-0.133568
-0.116239
-0.0998809
-0.0858308
-0.07516
-0.0682619
-0.0646925
-0.063424
-0.0633516
-0.0636949
-0.0640936
-0.0644293
-0.0646343
-0.0647091
0.010113
0.00928257
0.00793109
0.00580965
0.00243362
-0.00277334
-0.0104592
-0.0211531
-0.0350783
-0.0520504
-0.0714945
-0.0925621
-0.114295
-0.135784
-0.156282
-0.175261
-0.192404
-0.207567
-0.220721
-0.231901
-0.241173
-0.248612
-0.254281
-0.258221
-0.260484
-0.26118
-0.260335
-0.25798
-0.254136
-0.248803
-0.241946
-0.233487
-0.223301
-0.211222
-0.197082
-0.180789
-0.162469
-0.142633
-0.122336
-0.103155
-0.0868849
-0.0749424
-0.067744
-0.0645257
-0.0638096
-0.064176
-0.0647715
-0.0652995
-0.0656365
-0.0657746
0.0103219
0.00938622
0.00769462
0.00481744
8.68886e-05
-0.00717985
-0.0176259
-0.0316224
-0.0491032
-0.0695327
-0.0920098
-0.115457
-0.13882
-0.161228
-0.18207
-0.200997
-0.217869
-0.232682
-0.245503
-0.256417
-0.26551
-0.272857
-0.278513
-0.28251
-0.284878
-0.285711
-0.285019
-0.282836
-0.279187
-0.274087
-0.267524
-0.259454
-0.249776
-0.238328
-0.224882
-0.209185
-0.191045
-0.170514
-0.148146
-0.125224
-0.103765
-0.0860595
-0.0737865
-0.0671705
-0.0648935
-0.0649384
-0.0656831
-0.0663953
-0.0668727
-0.0670861
0.00916157
0.0080951
0.00596163
0.00214139
-0.00419009
-0.0137649
-0.0271331
-0.0444163
-0.0651993
-0.0885907
-0.113416
-0.138466
-0.162703
-0.185393
-0.206116
-0.224716
-0.241203
-0.255669
-0.268227
-0.278975
-0.287991
-0.295331
-0.301034
-0.305117
-0.307594
-0.308542
-0.307959
-0.305875
-0.302316
-0.297304
-0.29085
-0.282942
-0.273532
-0.262515
-0.249706
-0.234831
-0.217559
-0.197602
-0.174953
-0.150242
-0.125074
-0.102006
-0.0838344
-0.0723097
-0.0671224
-0.0661479
-0.0668792
-0.0677838
-0.068426
-0.0687398
0.00625517
0.00502556
0.00235794
-0.00254718
-0.0106278
-0.0225988
-0.0388363
-0.0591496
-0.0827595
-0.10846
-0.134892
-0.160822
-0.185331
-0.207878
-0.228247
-0.246442
-0.262577
-0.276789
-0.289197
-0.299884
-0.308906
-0.316298
-0.322084
-0.326266
-0.328849
-0.329897
-0.329405
-0.327394
-0.323886
-0.318902
-0.31246
-0.30457
-0.295223
-0.28438
-0.271936
-0.257697
-0.241348
-0.22248
-0.200709
-0.175989
-0.149111
-0.122146
-0.0983231
-0.0808704
-0.0712372
-0.0681155
-0.0684324
-0.0695263
-0.0703692
-0.0708258
0.00136354
-5.98763e-05
-0.00332538
-0.00938708
-0.0192446
-0.0335319
-0.0523916
-0.0752957
-0.101126
-0.128437
-0.155787
-0.182016
-0.206386
-0.228562
-0.248506
-0.266334
-0.282207
-0.296268
-0.308615
-0.319308
-0.328377
-0.335841
-0.341711
-0.345985
-0.34866
-0.349795
-0.349386
-0.347444
-0.343987
-0.33903
-0.332587
-0.324673
-0.315299
-0.304464
-0.29214
-0.278232
-0.262537
-0.244696
-0.22421
-0.200596
-0.173817
-0.144969
-0.116823
-0.0933903
-0.078066
-0.071366
-0.0705076
-0.0716881
-0.0727792
-0.073435
-0.00556642
-0.00720476
-0.0110913
-0.0183017
-0.0298444
-0.0462226
-0.0673141
-0.0922641
-0.119673
-0.147943
-0.175645
-0.20176
-0.225753
-0.247476
-0.267018
-0.284554
-0.300254
-0.314237
-0.326573
-0.337294
-0.346412
-0.353935
-0.359872
-0.364217
-0.366966
-0.368171
-0.367836
-0.365965
-0.36257
-0.357659
-0.351243
-0.34333
-0.333932
-0.323064
-0.310736
-0.296934
-0.281574
-0.26444
-0.24511
-0.222971
-0.197444
-0.168601
-0.138104
-0.109726
-0.0882429
-0.076576
-0.0734235
-0.0743717
-0.0757701
-0.0766737
-0.0143871
-0.0162473
-0.0207349
-0.0290126
-0.0420506
-0.0601911
-0.0830447
-0.109468
-0.137854
-0.166539
-0.194175
-0.219921
-0.24343
-0.264702
-0.2839
-0.301218
-0.316804
-0.330745
-0.343082
-0.353824
-0.362973
-0.370532
-0.37651
-0.380904
-0.383707
-0.384968
-0.384697
-0.382893
-0.379565
-0.374718
-0.368358
-0.360488
-0.351114
-0.340247
-0.327907
-0.314119
-0.298885
-0.282129
-0.263603
-0.242792
-0.218934
-0.191379
-0.160522
-0.129013
-0.101927
-0.08439
-0.0776401
-0.077738
-0.0794655
-0.0806541
-0.0247707
-0.026844
-0.031875
-0.0410825
-0.0553614
-0.0748828
-0.0990118
-0.126373
-0.155225
-0.183911
-0.211208
-0.236452
-0.259454
-0.280314
-0.29923
-0.316381
-0.331884
-0.345791
-0.358118
-0.368861
-0.378018
-0.385591
-0.391589
-0.396013
-0.398856
-0.400158
-0.399941
-0.398196
-0.394933
-0.390157
-0.38387
-0.376074
-0.366769
-0.355958
-0.343657
-0.329895
-0.314713
-0.298131
-0.280071
-0.26022
-0.237914
-0.212207
-0.182492
-0.149903
-0.11867
-0.095185
-0.0836636
-0.0820174
-0.083971
-0.085489
-0.0362556
-0.0385184
-0.0440085
-0.0539752
-0.0692119
-0.0897271
-0.114678
-0.14252
-0.171442
-0.199846
-0.226648
-0.251343
-0.273862
-0.294361
-0.313042
-0.330056
-0.345484
-0.359348
-0.371648
-0.382373
-0.391519
-0.399088
-0.405093
-0.409534
-0.412405
-0.413738
-0.413565
-0.411871
-0.408667
-0.403958
-0.397748
-0.390038
-0.380827
-0.370116
-0.357911
-0.344231
-0.329121
-0.312644
-0.294836
-0.27559
-0.254476
-0.230604
-0.202842
-0.170934
-0.137504
-0.108904
-0.0919223
-0.0875033
-0.0893773
-0.091298
-0.0483061
-0.0507219
-0.0565716
-0.0671163
-0.0830312
-0.104184
-0.12957
-0.157532
-0.186248
-0.214199
-0.240439
-0.264591
-0.286671
-0.306857
-0.325337
-0.342228
-0.357577
-0.371387
-0.383645
-0.394337
-0.40346
-0.411016
-0.417017
-0.421469
-0.42436
-0.425716
-0.425579
-0.423928
-0.420774
-0.416124
-0.409985
-0.40236
-0.393252
-0.38266
-0.370586
-0.357042
-0.34206
-0.325707
-0.308072
-0.289193
-0.268894
-0.246539
-0.220922
-0.190863
-0.157186
-0.125021
-0.102614
-0.0944758
-0.0957768
-0.0981933
-0.0603716
-0.0628935
-0.0689992
-0.0799474
-0.0962867
-0.117773
-0.143288
-0.171114
-0.199448
-0.226866
-0.252538
-0.276188
-0.297877
-0.317792
-0.336093
-0.352866
-0.368132
-0.381878
-0.394084
-0.404737
-0.413831
-0.42137
-0.427365
-0.431822
-0.434729
-0.4361
-0.435992
-0.434375
-0.431263
-0.426664
-0.420586
-0.413038
-0.404026
-0.393553
-0.381624
-0.368246
-0.353441
-0.337263
-0.319807
-0.30119
-0.281431
-0.260201
-0.236522
-0.208842
-0.176479
-0.142634
-0.115591
-0.103127
-0.103278
-0.106232
-0.0719376
-0.0745147
-0.0807709
-0.0919655
-0.108513
-0.130091
-0.155512
-0.183034
-0.210899
-0.237768
-0.262909
-0.28611
-0.307461
-0.327139
-0.345279
-0.361938
-0.377119
-0.390798
-0.40295
-0.413562
-0.422628
-0.430151
-0.436137
-0.440597
-0.443517
-0.444897
-0.444813
-0.443223
-0.440143
-0.435584
-0.429556
-0.422072
-0.413142
-0.402778
-0.390987
-0.377781
-0.363177
-0.347216
-0.329981
-0.311611
-0.292243
-0.271812
-0.249697
-0.224421
-0.194362
-0.160651
-0.130338
-0.113469
-0.111938
-0.115353
-0.0825849
-0.0851231
-0.0914462
-0.102749
-0.11933
-0.140818
-0.165991
-0.193119
-0.220491
-0.246843
-0.27151
-0.294326
-0.31539
-0.334863
-0.352857
-0.36941
-0.384509
-0.398124
-0.410227
-0.420803
-0.429847
-0.437356
-0.443337
-0.447798
-0.450728
-0.452114
-0.452048
-0.450477
-0.447421
-0.44289
-0.436899
-0.429462
-0.420597
-0.410322
-0.398652
-0.385605
-0.371201
-0.355474
-0.338495
-0.320397
-0.301365
-0.281521
-0.260594
-0.23745
-0.210119
-0.177985
-0.146046
-0.125259
-0.121658
-0.125317
-0.0919958
-0.0943414
-0.100665
-0.111968
-0.128443
-0.14971
-0.174544
-0.201241
-0.228141
-0.254035
-0.278303
-0.300801
-0.321625
-0.340925
-0.358792
-0.375251
-0.390277
-0.403837
-0.415901
-0.426452
-0.435481
-0.442984
-0.448964
-0.453428
-0.456367
-0.457761
-0.457705
-0.456147
-0.453103
-0.448588
-0.442616
-0.435208
-0.426386
-0.416174
-0.404599
-0.391685
-0.377459
-0.361958
-0.345247
-0.327443
-0.308743
-0.289372
-0.26934
-0.247941
-0.223325
-0.193701
-0.161742
-0.137968
-0.132095
-0.135698
-0.099922
-0.101939
-0.108155
-0.119382
-0.135648
-0.156597
-0.18104
-0.20731
-0.233787
-0.259299
-0.283248
-0.305494
-0.326129
-0.345287
-0.36305
-0.379429
-0.394399
-0.40792
-0.41996
-0.4305
-0.439528
-0.447036
-0.453023
-0.457494
-0.460442
-0.461846
-0.461795
-0.460246
-0.457204
-0.452689
-0.446719
-0.439316
-0.43051
-0.420331
-0.408814
-0.395995
-0.381912
-0.366607
-0.350146
-0.332638
-0.314274
-0.295324
-0.275986
-0.255955
-0.233775
-0.207095
-0.176445
-0.150846
-0.142704
-0.145959
-0.106197
-0.107798
-0.113762
-0.124837
-0.140826
-0.161399
-0.185424
-0.211284
-0.237397
-0.262606
-0.286314
-0.308374
-0.328864
-0.347913
-0.365595
-0.381918
-0.396851
-0.410353
-0.42239
-0.432937
-0.441979
-0.449506
-0.455512
-0.459997
-0.462958
-0.464374
-0.464325
-0.462781
-0.459731
-0.455202
-0.449215
-0.441793
-0.432971
-0.422789
-0.41129
-0.398521
-0.38453
-0.369372
-0.353117
-0.335877
-0.317836
-0.299276
-0.280506
-0.261535
-0.241393
-0.217692
-0.189283
-0.163046
-0.152851
-0.155528
-0.110753
-0.11188
-0.117446
-0.128274
-0.143926
-0.164068
-0.187651
-0.213119
-0.238924
-0.263912
-0.287465
-0.309413
-0.329818
-0.348799
-0.366429
-0.38272
-0.39764
-0.411146
-0.423201
-0.433776
-0.44285
-0.450409
-0.456442
-0.460945
-0.463913
-0.465334
-0.465282
-0.463741
-0.460676
-0.456119
-0.450095
-0.44263
-0.433762
-0.423539
-0.412014
-0.399245
-0.385289
-0.370215
-0.354104
-0.337075
-0.319314
-0.301106
-0.282817
-0.264672
-0.246163
-0.225211
-0.199569
-0.17375
-0.161902
-0.163864
-0.113618
-0.114239
-0.11927
-0.12974
-0.144989
-0.164646
-0.187748
-0.212818
-0.238345
-0.263166
-0.286631
-0.30853
-0.328904
-0.347861
-0.365478
-0.38177
-0.39671
-0.410254
-0.422361
-0.432996
-0.442135
-0.449759
-0.455851
-0.460403
-0.463409
-0.464851
-0.464775
-0.463204
-0.460088
-0.455466
-0.449363
-0.441815
-0.432866
-0.422563
-0.410966
-0.398142
-0.384159
-0.369098
-0.353057
-0.336162
-0.31861
-0.300693
-0.282807
-0.265313
-0.248077
-0.229504
-0.206809
-0.182247
-0.169287
-0.170486
-0.1149
-0.115018
-0.119393
-0.129363
-0.144124
-0.163225
-0.18579
-0.210434
-0.235686
-0.260373
-0.2838
-0.305708
-0.326101
-0.345079
-0.362719
-0.379044
-0.394035
-0.407647
-0.419835
-0.430561
-0.439793
-0.447504
-0.453677
-0.458296
-0.461352
-0.462834
-0.46276
-0.461169
-0.458003
-0.453304
-0.447105
-0.439438
-0.43035
-0.4199
-0.408155
-0.395196
-0.381109
-0.365984
-0.349925
-0.333074
-0.315641
-0.297929
-0.28036
-0.263375
-0.247116
-0.230503
-0.21068
-0.187966
-0.174507
-0.174974
-0.114776
-0.114427
-0.118048
-0.127347
-0.141496
-0.159947
-0.181889
-0.206041
-0.230988
-0.255547
-0.278967
-0.300928
-0.321392
-0.340436
-0.35814
-0.374536
-0.389612
-0.403327
-0.415633
-0.426484
-0.435841
-0.443673
-0.449954
-0.454663
-0.457787
-0.459314
-0.459247
-0.457635
-0.454411
-0.44962
-0.443299
-0.435484
-0.426224
-0.415583
-0.403637
-0.390472
-0.376182
-0.360874
-0.344676
-0.327755
-0.310331
-0.292721
-0.275366
-0.258762
-0.243242
-0.22818
-0.210991
-0.190476
-0.177138
-0.176965
-0.113475
-0.11273
-0.115535
-0.123967
-0.137335
-0.155001
-0.176196
-0.199744
-0.224307
-0.248699
-0.272115
-0.294159
-0.314736
-0.333895
-0.35171
-0.368222
-0.383426
-0.397286
-0.40975
-0.420768
-0.430291
-0.438281
-0.444702
-0.449529
-0.452743
-0.454328
-0.454275
-0.452642
-0.449355
-0.444455
-0.437988
-0.42999
-0.420514
-0.409627
-0.397414
-0.383965
-0.369388
-0.3538
-0.337347
-0.32021
-0.302643
-0.284998
-0.267738
-0.251386
-0.236407
-0.222528
-0.207643
-0.189467
-0.176811
-0.176134
-0.11126
-0.110217
-0.112193
-0.119561
-0.131931
-0.148632
-0.168906
-0.191686
-0.215725
-0.239857
-0.263228
-0.28536
-0.306084
-0.325407
-0.343386
-0.360066
-0.375449
-0.389502
-0.402173
-0.413404
-0.42314
-0.43133
-0.437932
-0.442911
-0.446242
-0.447904
-0.447882
-0.446227
-0.442876
-0.437857
-0.431221
-0.423007
-0.41327
-0.402082
-0.38953
-0.375715
-0.36075
-0.344769
-0.327932
-0.310445
-0.292592
-0.274751
-0.257431
-0.241188
-0.226568
-0.213548
-0.200598
-0.184734
-0.173202
-0.172184
-0.108409
-0.107184
-0.108366
-0.114504
-0.125626
-0.141127
-0.160259
-0.182048
-0.205359
-0.229075
-0.252306
-0.274492
-0.29538
-0.314912
-0.333116
-0.350027
-0.36565
-0.379956
-0.392892
-0.404393
-0.414394
-0.422835
-0.429663
-0.434835
-0.438317
-0.440083
-0.440115
-0.438444
-0.435031
-0.429887
-0.423061
-0.414601
-0.40456
-0.393013
-0.380051
-0.36578
-0.350323
-0.333825
-0.316466
-0.298478
-0.280175
-0.261981
-0.244444
-0.228159
-0.213722
-0.201262
-0.189865
-0.176157
-0.166026
-0.164832
-0.105192
-0.103898
-0.104375
-0.109178
-0.1188
-0.132821
-0.150532
-0.171049
-0.193361
-0.21643
-0.239361
-0.261522
-0.28256
-0.302338
-0.320832
-0.338051
-0.353993
-0.368627
-0.381899
-0.393737
-0.404067
-0.412819
-0.419928
-0.425342
-0.429017
-0.43092
-0.431029
-0.42936
-0.425891
-0.420618
-0.413588
-0.404853
-0.394466
-0.382503
-0.369058
-0.354241
-0.338182
-0.321041
-0.303015
-0.284365
-0.265445
-0.246723
-0.228801
-0.212323
-0.197926
-0.185742
-0.175503
-0.163695
-0.155036
-0.153808
-0.101844
-0.100576
-0.100483
-0.103939
-0.111848
-0.124079
-0.140038
-0.158942
-0.179916
-0.202033
-0.224429
-0.24642
-0.267557
-0.287601
-0.30645
-0.324067
-0.340426
-0.355486
-0.369184
-0.381444
-0.392182
-0.401316
-0.408771
-0.414484
-0.418401
-0.420483
-0.4207
-0.419057
-0.415545
-0.410143
-0.402899
-0.393864
-0.383093
-0.370659
-0.356658
-0.341203
-0.324432
-0.306516
-0.287676
-0.268204
-0.248496
-0.229072
-0.210592
-0.193754
-0.179249
-0.167136
-0.157642
-0.14739
-0.140045
-0.138854
-0.0985494
-0.097378
-0.0968767
-0.0990798
-0.105148
-0.115289
-0.12912
-0.146011
-0.165241
-0.186027
-0.207574
-0.229181
-0.25031
-0.270608
-0.28987
-0.307985
-0.32488
-0.340487
-0.354729
-0.367519
-0.378761
-0.388365
-0.396244
-0.402325
-0.406544
-0.408854
-0.40922
-0.407632
-0.404095
-0.398573
-0.391109
-0.381755
-0.370564
-0.357608
-0.342981
-0.326799
-0.309207
-0.29039
-0.270593
-0.250142
-0.229482
-0.209191
-0.189988
-0.172626
-0.157832
-0.145652
-0.13648
-0.127364
-0.12095
-0.119741
-0.0954399
-0.0944047
-0.0936644
-0.0948006
-0.0990197
-0.106828
-0.118141
-0.132566
-0.149585
-0.16859
-0.188902
-0.209835
-0.230785
-0.251281
-0.270994
-0.289707
-0.307273
-0.323574
-0.338505
-0.351959
-0.363828
-0.374011
-0.38241
-0.388941
-0.393533
-0.396132
-0.396695
-0.3952
-0.391663
-0.386034
-0.378351
-0.368664
-0.357024
-0.343499
-0.328183
-0.311192
-0.29268
-0.272847
-0.251962
-0.230392
-0.208632
-0.187323
-0.167247
-0.149201
-0.133941
-0.121522
-0.112284
-0.103803
-0.0977431
-0.0962318
-0.0925927
-0.091712
-0.0908863
-0.0912014
-0.0936908
-0.0990249
-0.107454
-0.118928
-0.133217
-0.149939
-0.168565
-0.188466
-0.208999
-0.229582
-0.249748
-0.269146
-0.287522
-0.304683
-0.320474
-0.334756
-0.347403
-0.358296
-0.367331
-0.374413
-0.379465
-0.382423
-0.383241
-0.381889
-0.378382
-0.372669
-0.364775
-0.354748
-0.342638
-0.32851
-0.312453
-0.294587
-0.275074
-0.25413
-0.232052
-0.20925
-0.186272
-0.163822
-0.142737
-0.123857
-0.107952
-0.0950379
-0.0854077
-0.0769337
-0.0704739
-0.067986
-0.0900402
-0.0893224
-0.088534
-0.0882867
-0.0892622
-0.0921035
-0.0973563
-0.105406
-0.116421
-0.130321
-0.146772
-0.165237
-0.185059
-0.20556
-0.226131
-0.246268
-0.265581
-0.283771
-0.300608
-0.315905
-0.329503
-0.341266
-0.351075
-0.358828
-0.364439
-0.367842
-0.368986
-0.367836
-0.364396
-0.358631
-0.350546
-0.340186
-0.327599
-0.312849
-0.296021
-0.277241
-0.256677
-0.234565
-0.211231
-0.187126
-0.162852
-0.139168
-0.116962
-0.0970972
-0.0803388
-0.0666201
-0.0562829
-0.0470259
-0.0393452
-0.0346033
-0.0877738
-0.0872316
-0.0865709
-0.0859852
-0.0856953
-0.0861312
-0.08803
-0.0922509
-0.0994738
-0.110016
-0.123799
-0.140407
-0.159191
-0.179398
-0.200276
-0.221159
-0.241501
-0.26087
-0.278935
-0.295438
-0.310176
-0.322982
-0.333721
-0.34228
-0.348569
-0.352516
-0.354067
-0.353187
-0.34987
-0.344096
-0.335854
-0.325184
-0.312137
-0.296773
-0.27918
-0.259485
-0.237869
-0.214585
-0.189989
-0.164569
-0.138971
-0.113998
-0.0905653
-0.0695442
-0.0516704
-0.0367991
-0.0253791
-0.0144091
-0.00499548
0.00397495
-0.0857366
-0.0854002
-0.0849371
-0.0841646
-0.0828104
-0.0809779
-0.0794725
-0.079597
-0.0826129
-0.0893331
-0.100001
-0.114359
-0.131788
-0.151465
-0.172511
-0.194097
-0.215508
-0.236162
-0.255605
-0.273488
-0.289545
-0.303569
-0.315399
-0.324909
-0.332002
-0.336603
-0.338657
-0.338127
-0.335002
-0.329278
-0.320933
-0.310003
-0.296542
-0.280613
-0.262306
-0.241755
-0.21915
-0.194764
-0.168974
-0.142298
-0.115406
-0.0891154
-0.064337
-0.0419154
-0.0225397
-0.00602335
0.0070684
0.0208166
0.0317326
0.0475596
-0.0838076
-0.083732
-0.0835246
-0.0826212
-0.080289
-0.0763032
-0.0714566
-0.0674125
-0.0660071
-0.0686046
-0.0758342
-0.0876361
-0.103441
-0.122372
-0.143431
-0.165632
-0.188092
-0.210074
-0.230987
-0.250376
-0.267895
-0.283285
-0.296352
-0.306951
-0.314973
-0.32034
-0.322998
-0.322911
-0.320062
-0.314464
-0.306096
-0.29499
-0.281203
-0.264806
-0.245896
-0.224615
-0.201165
-0.175831
-0.149004
-0.121207
-0.0931044
-0.0654833
-0.0391981
-0.0150139
0.00646901
0.0254945
0.0414669
0.0594489
0.0717804
0.0982348
-0.0817923
-0.0820442
-0.0821256
-0.0810361
-0.0776703
-0.0715833
-0.0635493
-0.055495
-0.0497437
-0.0481886
-0.0518716
-0.060968
-0.0749839
-0.0930069
-0.113933
-0.136634
-0.160072
-0.183354
-0.205753
-0.226699
-0.245759
-0.262611
-0.277019
-0.288812
-0.297868
-0.304104
-0.307464
-0.307915
-0.305443
-0.300063
-0.291776
-0.280611
-0.266632
-0.249921
-0.230585
-0.208777
-0.184707
-0.158665
-0.131036
-0.102317
-0.0731198
-0.0441458
-0.0161276
0.0103174
0.034755
0.0576156
0.078508
0.103278
0.120274
0.163313
-0.0794769
-0.0800847
-0.080452
-0.0790121
-0.0744132
-0.0662031
-0.0552237
-0.043563
-0.0338812
-0.0284957
-0.0288265
-0.0352964
-0.0475138
-0.0645567
-0.0852405
-0.108319
-0.132617
-0.157102
-0.180917
-0.203382
-0.223975
-0.242306
-0.258091
-0.271129
-0.281282
-0.288458
-0.292599
-0.293678
-0.291683
-0.28663
-0.278546
-0.267468
-0.253471
-0.236651
-0.217126
-0.195056
-0.170655
-0.144202
-0.116048
-0.0866271
-0.0564435
-0.0260443
0.00403583
0.0334102
0.0618978
0.0902485
0.118468
0.153649
0.183424
0.248106
-0.0769655
-0.0778146
-0.0783128
-0.0762679
-0.0702185
-0.0597904
-0.0461219
-0.0314642
-0.0185859
-0.0100487
-0.00755876
-0.0117533
-0.0223546
-0.0384626
-0.0588509
-0.0821902
-0.107197
-0.132725
-0.157806
-0.181661
-0.203683
-0.223418
-0.240532
-0.254793
-0.266043
-0.274179
-0.279145
-0.280915
-0.279487
-0.27488
-0.267131
-0.256292
-0.242458
-0.225747
-0.206288
-0.184237
-0.159797
-0.133216
-0.104788
-0.0748423
-0.0437221
-0.0117445
0.0208622
0.0540913
0.0881873
0.124342
0.162867
0.212522
0.260021
0.338584
-0.0755434
-0.0762417
-0.0763703
-0.0731465
-0.0652665
-0.0526139
-0.0365334
-0.0195351
-0.00439662
0.00638013
0.0108966
0.00837094
-0.000996093
-0.0163432
-0.0364464
-0.0599386
-0.0854708
-0.111816
-0.137925
-0.162937
-0.186177
-0.207132
-0.225427
-0.240796
-0.253061
-0.262112
-0.267886
-0.270361
-0.269546
-0.265472
-0.258195
-0.247758
-0.234247
-0.217808
-0.198592
-0.176755
-0.152474
-0.125949
-0.0973942
-0.0670084
-0.0349334
-0.00117634
0.0344938
0.0727437
0.11474
0.162814
0.218031
0.289154
0.349516
0.424484
-0.0797163
-0.0790174
-0.0774092
-0.0718001
-0.0612529
-0.0460134
-0.027686
-0.00887261
0.00764619
0.0196582
0.0253981
0.0238643
0.015244
0.000375974
-0.0195401
-0.0431356
-0.0690335
-0.0959634
-0.122823
-0.148699
-0.172866
-0.194767
-0.213991
-0.230249
-0.243345
-0.253158
-0.259623
-0.26272
-0.262461
-0.258886
-0.252057
-0.242066
-0.228989
-0.212908
-0.19398
-0.172384
-0.148284
-0.121833
-0.0931621
-0.0623353
-0.0292679
0.00640471
0.0455312
0.0898259
0.142207
0.207897
0.29169
0.403607
0.495865
0.603442
-0.103149
-0.0953295
-0.0868844
-0.0760963
-0.0617325
-0.0433997
-0.0227424
-0.00233938
0.0153609
0.0281474
0.0343296
0.0332201
0.02501
0.0104894
-0.00918772
-0.032687
-0.0586471
-0.0857935
-0.113004
-0.139339
-0.164038
-0.186517
-0.206336
-0.223185
-0.236851
-0.247203
-0.254171
-0.25773
-0.257895
-0.254706
-0.248231
-0.238554
-0.225774
-0.210001
-0.191359
-0.169989
-0.14604
-0.119637
-0.0908433
-0.059597
-0.0255961
0.0119028
0.0544145
0.104859
0.168366
0.254426
0.375716
0.555758
0.767717
1.10787
-0.189985
-0.11223
-0.0806433
-0.0714148
-0.0581364
-0.038761
-0.0170606
0.00394996
0.021761
0.0341967
0.0398511
0.0382409
0.0296379
0.0148615
-0.00494142
-0.028473
-0.0544178
-0.0815403
-0.108745
-0.135106
-0.159871
-0.18245
-0.2024
-0.219403
-0.233241
-0.243775
-0.25093
-0.25468
-0.255035
-0.252037
-0.245749
-0.236257
-0.22366
-0.208068
-0.189601
-0.168391
-0.144573
-0.118243
-0.0894071
-0.057906
-0.0232737
0.0155134
0.0604476
0.115271
0.186541
0.286603
0.435347
0.680404
1.0794
1.82855
)
;

boundaryField
{
    movingWall
    {
        type            zeroGradient;
    }
    fixedWalls
    {
        type            zeroGradient;
    }
    frontAndBack
    {
        type            empty;
    }
}


// ************************************************************************* //
