/*--------------------------------*- C++ -*----------------------------------*\
  =========                 |
  \\      /  F ield         | OpenFOAM: The Open Source CFD Toolbox
   \\    /   O peration     | Website:  https://openfoam.org
    \\  /    A nd           | Version:  7
     \\/     M anipulation  |
\*---------------------------------------------------------------------------*/
FoamFile
{
    version     2.0;
    format      ascii;
    class       surfaceScalarField;
    location    "1800";
    object      phi;
}
// * * * * * * * * * * * * * * * * * * * * * * * * * * * * * * * * * * * * * //

dimensions      [0 3 -1 0 0 0 0];

internalField   nonuniform List<scalar> 
4900
(
1.70086e-06
-1.70263e-06
6.22443e-06
-4.52358e-06
1.17168e-05
-5.49233e-06
1.65025e-05
-4.78579e-06
1.97498e-05
-3.24732e-06
2.13889e-05
-1.63907e-06
2.17674e-05
-3.78535e-07
2.12619e-05
5.05462e-07
2.00157e-05
1.24625e-06
1.78647e-05
2.151e-06
1.44157e-05
3.44892e-06
9.18201e-06
5.23369e-06
1.67245e-06
7.50954e-06
-8.56492e-06
1.02374e-05
-2.18795e-05
1.33145e-05
-3.84339e-05
1.65544e-05
-5.81324e-05
1.96985e-05
-8.05393e-05
2.24069e-05
-0.000104816
2.42767e-05
-0.000129705
2.48894e-05
-0.00015358
2.38745e-05
-0.000174553
2.09733e-05
-0.000190644
1.60903e-05
-0.000199976
9.33263e-06
-0.000201031
1.05453e-06
-0.000192867
-8.16409e-06
-0.000175241
-1.76261e-05
-0.000148675
-2.65659e-05
-0.000114463
-3.42113e-05
-7.46322e-05
-3.98311e-05
-3.18336e-05
-4.27986e-05
1.08161e-05
-4.26496e-05
5.00605e-05
-3.92444e-05
8.30494e-05
-3.2989e-05
0.000107608
-2.45584e-05
0.000122472
-1.48642e-05
0.000127529
-5.05699e-06
0.000123862
3.66741e-06
0.000113468
1.03936e-05
9.874e-05
1.47279e-05
8.20208e-05
1.67192e-05
6.52474e-05
1.67734e-05
4.97649e-05
1.54825e-05
3.6307e-05
1.34579e-05
2.51008e-05
1.12063e-05
1.60381e-05
9.06268e-06
8.89212e-06
7.14596e-06
3.59357e-06
5.29855e-06
5.04938e-07
3.08863e-06
5.04937e-07
4.47537e-06
-6.17802e-06
1.38492e-05
-1.38974e-05
2.4311e-05
-1.59542e-05
3.28992e-05
-1.3374e-05
3.80018e-05
-8.35001e-06
3.92285e-05
-2.86578e-06
3.68609e-05
1.98898e-06
3.1206e-05
6.16036e-06
2.21557e-05
1.02965e-05
9.08208e-06
1.52246e-05
-9.0118e-06
2.15428e-05
-3.32266e-05
2.94485e-05
-6.4462e-05
3.87449e-05
-0.000103157
4.89328e-05
-0.000149083
5.92404e-05
-0.000201179
6.86505e-05
-0.000257499
7.60181e-05
-0.000315332
8.02402e-05
-0.000371482
8.04265e-05
-0.000422613
7.60198e-05
-0.000465585
6.68475e-05
-0.000497723
5.31109e-05
-0.000516973
3.53398e-05
-0.000521991
1.43509e-05
-0.000512232
-8.70442e-06
-0.00048779
-3.26061e-05
-0.000449305
-5.61114e-05
-0.000397979
-7.78915e-05
-0.000335639
-9.65518e-05
-0.000264758
-0.000110712
-0.000188432
-0.000119125
-0.000110236
-0.000120846
-3.40487e-05
-0.000115431
3.6056e-05
-0.000103094
9.63869e-05
-8.48892e-05
0.000144129
-6.26062e-05
0.000177361
-3.82887e-05
0.000195293
-1.4265e-05
0.000198521
7.16586e-06
0.000189143
2.4106e-05
0.000170308
3.55541e-05
0.000145607
4.14739e-05
0.00011845
4.26394e-05
9.16021e-05
4.03061e-05
6.6929e-05
3.58793e-05
4.54178e-05
3.05739e-05
2.74582e-05
2.51056e-05
1.33343e-05
1.94225e-05
3.75512e-06
1.26678e-05
4.26006e-06
5.98745e-06
-1.21655e-05
1.73374e-05
-2.52474e-05
2.88018e-05
-2.74186e-05
3.68227e-05
-2.13949e-05
3.95383e-05
-1.10657e-05
3.636e-05
3.12495e-07
2.72248e-05
1.11242e-05
1.19255e-05
2.14596e-05
-1.03027e-05
3.25246e-05
-4.07364e-05
4.56583e-05
-8.07354e-05
6.15417e-05
-0.000131223
7.99358e-05
-0.000192264
9.97859e-05
-0.000262755
0.000119424
-0.00034035
0.000136835
-0.000421692
0.000149993
-0.000502866
0.000157192
-0.000579919
0.000157293
-0.000649306
0.000149813
-0.000708161
0.000134875
-0.000754401
0.000113087
-0.000786674
8.53845e-05
-0.000804216
5.28814e-05
-0.000806666
1.68015e-05
-0.000793892
-2.14784e-05
-0.000765919
-6.05789e-05
-0.000723059
-9.89717e-05
-0.000666034
-0.000134916
-0.000596082
-0.000166504
-0.000515058
-0.000191736
-0.000425488
-0.000208694
-0.000330564
-0.000215771
-0.000234065
-0.00021193
-0.000140133
-0.000197026
-5.29994e-05
-0.000172023
2.33743e-05
-0.00013898
8.60181e-05
-0.000100932
0.00013314
-6.13868e-05
0.000163773
-2.34674e-05
0.000178062
9.81758e-06
0.000177544
3.60719e-05
0.000165023
5.39946e-05
0.000144048
6.36145e-05
0.0001183
6.60536e-05
9.10406e-05
6.31391e-05
6.47423e-05
5.68722e-05
4.1064e-05
4.87839e-05
2.1207e-05
3.92795e-05
6.60686e-06
2.72679e-05
1.08669e-05
6.50878e-06
-1.86743e-05
1.75975e-05
-3.63361e-05
2.69531e-05
-3.67742e-05
3.07609e-05
-2.52028e-05
2.7215e-05
-7.51978e-06
1.56221e-05
1.19053e-05
-4.55299e-06
3.12992e-05
-3.4324e-05
5.12307e-05
-7.52139e-05
7.34145e-05
-0.000128699
9.91437e-05
-0.000195511
0.000128353
-0.000275069
0.000159493
-0.000365247
0.000189965
-0.00046256
0.000216736
-0.000562693
0.000236968
-0.000661198
0.000248498
-0.000754101
0.000250095
-0.000838264
0.000241456
-0.00091147
0.000223019
-0.000972315
0.00019572
-0.00101998
0.000160753
-0.00105397
0.000119378
-0.00107393
7.28381e-05
-0.00107953
2.23991e-05
-0.0010704
-3.06084e-05
-0.00104624
-8.474e-05
-0.00100687
-0.000138339
-0.000952358
-0.000189428
-0.000883139
-0.000235724
-0.000800153
-0.000274721
-0.000705017
-0.000303831
-0.000600209
-0.000320578
-0.00048916
-0.000322978
-0.000376153
-0.000310033
-0.000266016
-0.00028216
-0.000163596
-0.0002414
-7.32122e-05
-0.000191316
1.86126e-06
-0.00013646
6.00522e-05
-8.16583e-05
0.000101058
-3.1188e-05
0.000125133
1.19967e-05
0.000133569
4.55587e-05
0.000128872
6.83117e-05
0.000114338
8.05875e-05
9.355e-05
8.39267e-05
6.98707e-05
8.05514e-05
4.61161e-05
7.25385e-05
2.46361e-05
6.07595e-05
7.92819e-06
4.39758e-05
1.87951e-05
6.20576e-06
-2.48801e-05
1.48973e-05
-4.50277e-05
1.92098e-05
-4.10868e-05
1.54823e-05
-2.14753e-05
2.16798e-06
5.79452e-06
-2.16171e-05
3.56903e-05
-5.70494e-05
6.67315e-05
-0.000105855
0.000100036
-0.000169658
0.000137218
-0.000249023
0.000178508
-0.000342764
0.000222094
-0.000447866
0.000264595
-0.000559948
0.000302047
-0.000674068
0.000330856
-0.000785549
0.000348449
-0.000890571
0.00035352
-0.000986409
0.000345932
-0.00107134
0.000326386
-0.0011444
0.000296079
-0.00120511
0.000256435
-0.00125325
0.000208885
-0.00128862
0.000154752
-0.00131109
9.53069e-05
-0.00132052
3.18315e-05
-0.00131666
-3.44736e-05
-0.00129909
-0.000102304
-0.00126733
-0.0001701
-0.00122084
-0.000235918
-0.00115911
-0.000297451
-0.00108183
-0.000352004
-0.00098921
-0.000396452
-0.000882377
-0.000427412
-0.000763646
-0.000441709
-0.000636706
-0.000436973
-0.000506608
-0.000412258
-0.000379385
-0.000368623
-0.000261246
-0.000309454
-0.00015749
-0.000240216
-7.16381e-05
-0.000167511
-5.12856e-06
-9.76975e-05
4.258e-05
-3.57119e-05
7.27326e-05
1.54061e-05
8.69329e-05
5.41115e-05
8.77088e-05
7.98116e-05
7.82695e-05
9.3366e-05
6.21272e-05
9.66938e-05
4.27425e-05
9.19232e-05
2.34093e-05
8.00926e-05
7.60354e-06
5.97816e-05
2.63987e-05
4.89942e-06
-2.97795e-05
8.88406e-06
-4.90124e-05
5.29683e-06
-3.74996e-05
-8.91246e-06
-7.26606e-06
-3.50882e-05
3.19702e-05
-7.4393e-05
7.4995e-05
-0.000128545
0.000120884
-0.000199293
0.000170784
-0.000287196
0.00022512
-0.000390731
0.000282043
-0.000506253
0.000337617
-0.000628703
0.000387045
-0.000752631
0.000425975
-0.000873129
0.000451354
-0.000986394
0.000461714
-0.00108987
0.000456995
-0.00118206
0.000438127
-0.00126226
0.000406587
-0.00133028
0.000364098
-0.00138626
0.000312412
-0.00143049
0.000253119
-0.00146338
0.000187642
-0.00148539
0.000117309
-0.00149684
4.32878e-05
-0.0014978
-3.35139e-05
-0.001488
-0.000112107
-0.00146686
-0.000191238
-0.00143338
-0.000269398
-0.00138613
-0.000344704
-0.0013235
-0.000414633
-0.00124408
-0.000475875
-0.001147
-0.000524487
-0.00103246
-0.000556247
-0.000902305
-0.00056713
-0.000760501
-0.000554062
-0.000613199
-0.000515925
-0.000468182
-0.000454472
-0.000333697
-0.000374701
-0.000216809
-0.000284399
-0.000121825
-0.000192681
-4.97017e-05
-0.000107835
1.19902e-06
-3.54946e-05
3.34786e-05
2.18318e-05
4.96885e-05
6.36018e-05
5.27876e-05
9.02668e-05
4.61905e-05
0.000103291
3.35999e-05
0.000104514
1.88766e-05
9.48159e-05
6.11502e-06
7.25431e-05
3.25137e-05
2.27647e-06
-3.2056e-05
-9.08374e-07
-4.58276e-05
-1.4994e-05
-2.3414e-05
-4.21731e-05
1.9913e-05
-8.36286e-05
7.34257e-05
-0.000140795
0.000132161
-0.000215371
0.00019546
-0.000308039
0.000263452
-0.000417262
0.000334344
-0.000539098
0.000403879
-0.000668001
0.00046652
-0.000798038
0.000517082
-0.000923939
0.000551875
-0.00104168
0.000569096
-0.00114861
0.000568643
-0.00124325
0.000551633
-0.00132501
0.000519886
-0.00139397
0.000475546
-0.00145071
0.000420838
-0.00149613
0.000357835
-0.00153133
0.000288316
-0.00155749
0.000213802
-0.00157571
0.000135529
-0.00158676
5.43395e-05
-0.00159108
-2.9193e-05
-0.00158873
-0.000114455
-0.00157923
-0.000200737
-0.00156136
-0.00028727
-0.00153323
-0.000372834
-0.00149244
-0.000455427
-0.00143616
-0.000532148
-0.00136147
-0.000599184
-0.00126592
-0.000651794
-0.00114849
-0.000684558
-0.00101041
-0.000692142
-0.000855856
-0.000670482
-0.000692217
-0.000618111
-0.00052954
-0.000537378
-0.00037885
-0.000435089
-0.000249628
-0.000321903
-0.000147346
-0.000210117
-7.2462e-05
-0.000110379
-2.16712e-05
-2.8959e-05
9.34855e-06
3.2582e-05
2.4455e-05
7.51603e-05
2.74321e-05
0.000100314
2.2237e-05
0.000109709
1.30501e-05
0.000104003
4.21412e-06
8.13791e-05
3.67278e-05
-1.91423e-06
-3.01418e-05
-1.46453e-05
-3.30966e-05
-4.13096e-05
3.25032e-06
-8.31988e-05
6.18021e-05
-0.000141325
0.000131552
-0.000217086
0.000207922
-0.000311267
0.000289641
-0.000422586
0.000374771
-0.000547154
0.000458912
-0.000679167
0.000535892
-0.000812239
0.000599592
-0.000940607
0.00064545
-0.00105982
0.000671091
-0.00116693
0.000676198
-0.00126029
0.000662004
-0.00133937
0.000630713
-0.00140449
0.000585009
-0.00145667
0.000527729
-0.00149741
0.000461576
-0.00152845
0.000388872
-0.00155161
0.000311482
-0.00156865
0.00023084
-0.00158098
0.000147862
-0.00158966
6.30113e-05
-0.00159543
-2.34153e-05
-0.00159864
-0.000111245
-0.00159898
-0.000200398
-0.00159548
-0.000290771
-0.0015865
-0.000381815
-0.00156955
-0.000472372
-0.00154117
-0.000560529
-0.00149708
-0.000643274
-0.00143272
-0.000716151
-0.001344
-0.00077328
-0.00122832
-0.000807825
-0.00108591
-0.00081289
-0.000921077
-0.000782946
-0.000742695
-0.00071576
-0.00056352
-0.000614264
-0.000397916
-0.000487506
-0.000258276
-0.000349758
-0.000151368
-0.000217287
-7.68337e-05
-0.000103493
-2.92058e-05
-1.50459e-05
-2.05589e-06
4.80105e-05
9.9863e-06
8.82716e-05
1.17382e-05
0.000107957
7.79547e-06
0.000107946
2.60217e-06
8.65724e-05
3.933e-05
-7.74063e-06
-2.24012e-05
-3.18883e-05
-8.94893e-06
-7.24806e-05
4.38426e-05
-0.000129776
0.000119098
-0.000204597
0.000206373
-0.000297675
0.000301
-0.000408118
0.000400084
-0.000532421
0.000499074
-0.000664812
0.000591302
-0.000798559
0.000669639
-0.000927349
0.000728382
-0.00104616
0.000764265
-0.00115158
0.00077651
-0.00124172
0.000766332
-0.00131601
0.000736297
-0.00137501
0.000689715
-0.00142016
0.000630152
-0.00145348
0.000561049
-0.00147729
0.000485387
-0.00149391
0.000405494
-0.00150549
0.000323061
-0.00151382
0.000239168
-0.00152027
0.000154313
-0.00152591
6.86531e-05
-0.00153153
-1.77945e-05
-0.00153752
-0.000105259
-0.00154386
-0.000194053
-0.00155021
-0.000284428
-0.00155561
-0.000376411
-0.00155821
-0.000469776
-0.00155498
-0.000563758
-0.00154168
-0.000656566
-0.0015129
-0.000744932
-0.00146236
-0.000823822
-0.00138391
-0.000886275
-0.00127311
-0.000923695
-0.00112906
-0.000926994
-0.00095613
-0.000888688
-0.000764825
-0.00080557
-0.000571028
-0.000681303
-0.000392966
-0.00052782
-0.000246173
-0.000364079
-0.000138385
-0.000211282
-6.76921e-05
-8.57384e-05
-2.58861e-05
6.20447e-06
-4.30369e-06
6.66892e-05
3.87552e-06
9.97778e-05
4.28499e-06
0.000107536
1.71555e-06
8.91419e-05
4.10455e-05
-1.49306e-05
-7.47059e-06
-5.16562e-05
2.77766e-05
-0.000106474
9.86609e-05
-0.000178711
0.000191335
-0.000268719
0.00029638
-0.000375956
0.000408237
-0.000497559
0.000521687
-0.000628131
0.000629647
-0.00076082
0.000723991
-0.000888805
0.000797624
-0.00100642
0.000845999
-0.00110968
0.000867519
-0.00119631
0.000863147
-0.00126568
0.000835702
-0.00131852
0.000789133
-0.00135664
0.00072784
-0.0013826
0.000656106
-0.0013992
0.000577656
-0.00140919
0.000495374
-0.00141494
0.000411245
-0.00141836
0.000326484
-0.00142085
0.000241657
-0.00142342
0.000156875
-0.00142681
7.20465e-05
-0.00143154
-1.30656e-05
-0.00143794
-9.88568e-05
-0.00144629
-0.0001857
-0.00145678
-0.000273941
-0.00146923
-0.000363963
-0.00148286
-0.000456146
-0.00149601
-0.000550604
-0.00150573
-0.000646848
-0.00150729
-0.000743377
-0.00149407
-0.00083704
-0.00145806
-0.000922281
-0.00139103
-0.00099073
-0.00128642
-0.0010316
-0.00114196
-0.00103315
-0.000962092
-0.000985439
-0.000759343
-0.000884052
-0.000553295
-0.000733868
-0.000366416
-0.000550958
-0.000217184
-0.000360514
-0.000113328
-0.000189594
-5.01779e-05
-5.6946e-05
-1.63304e-05
3.28417e-05
-1.28468e-06
8.4732e-05
2.75098e-06
0.0001035
1.64906e-06
9.02438e-05
4.26946e-05
-2.29855e-05
1.55149e-05
-7.24396e-05
7.72308e-05
-0.000140699
0.00016692
-0.000226252
0.000276887
-0.000328575
0.000398703
-0.000445544
0.000525206
-0.000572494
0.000648636
-0.00070279
0.000759943
-0.000829277
0.000850478
-0.000945645
0.000913993
-0.00104723
0.000947587
-0.00113129
0.000951581
-0.00119697
0.000928817
-0.00124506
0.000883798
-0.00127773
0.000821803
-0.00129798
0.000748087
-0.00130911
0.000667235
-0.00131423
0.000582774
-0.00131591
0.000497057
-0.00131608
0.000411415
-0.00131601
0.000326413
-0.00131646
0.000242109
-0.0013179
0.00015831
-0.00132059
7.47358e-05
-0.0013247
-8.95493e-06
-0.00133047
-9.30874e-05
-0.00133824
-0.000177925
-0.00134843
-0.000263749
-0.00136143
-0.00035097
-0.00137748
-0.00044009
-0.00139644
-0.000531644
-0.00141717
-0.000626116
-0.00143693
-0.000723624
-0.00145076
-0.000823207
-0.0014512
-0.000921841
-0.00142851
-0.00101342
-0.00137205
-0.00108806
-0.00127293
-0.00113226
-0.0011275
-0.00113088
-0.000940609
-0.00107094
-0.000727447
-0.00094703
-0.000512007
-0.000766399
-0.000321269
-0.000551252
-0.000175838
-0.000335026
-8.16081e-05
-0.000151176
-2.96106e-05
-1.91557e-05
-5.38982e-06
6.05113e-05
2.49497e-06
9.56156e-05
2.18187e-06
9.05569e-05
4.48764e-05
-3.11634e-05
4.66783e-05
-9.24262e-05
0.000138494
-0.00017242
0.000246914
-0.000268673
0.000373141
-0.000379531
0.000509561
-0.000501311
0.000646985
-0.00062802
0.000775346
-0.000752484
0.000884407
-0.000867858
0.000965852
-0.000968755
0.00101489
-0.00105179
0.00103062
-0.0011157
0.00101549
-0.0011612
0.000974322
-0.00119064
0.000913235
-0.0012074
0.000838557
-0.00121522
0.000755907
-0.00121758
0.000669603
-0.00121729
0.000582478
-0.00121626
0.000496034
-0.00121566
0.000410805
-0.00121598
0.00032674
-0.00121739
0.000243517
-0.00121984
0.000160761
-0.00122323
7.81268e-05
-0.00122751
-4.67379e-06
-0.00123278
-8.78195e-05
-0.00123926
-0.000171443
-0.00124734
-0.000255676
-0.00125758
-0.000340729
-0.00127075
-0.000426919
-0.00128761
-0.000514782
-0.00130859
-0.000605137
-0.00133324
-0.000698968
-0.00135944
-0.000797013
-0.00138231
-0.000898972
-0.00139353
-0.0010022
-0.00138154
-0.00110005
-0.0013332
-0.0011806
-0.0012372
-0.00122688
-0.00108863
-0.00121951
-0.000893465
-0.00114219
-0.000670666
-0.000989197
-0.000449621
-0.000772297
-0.000261709
-0.000522938
-0.000127792
-0.000285093
-4.91494e-05
-9.77979e-05
-1.12715e-05
2.26334e-05
2.16068e-06
8.21834e-05
2.88168e-06
8.98359e-05
4.77581e-05
-3.85894e-05
8.52677e-05
-0.000109887
0.000209791
-0.00019915
0.000336177
-0.000302837
0.000476828
-0.000418094
0.000624817
-0.000539964
0.000768855
-0.000661705
0.000897087
-0.000776202
0.000998903
-0.000877371
0.00106702
-0.000961045
0.00109856
-0.00102534
0.00109491
-0.00107061
0.00106077
-0.00109917
0.00100288
-0.00111463
0.000928691
-0.0011211
0.000845033
-0.00112245
0.000757256
-0.00112171
0.000668866
-0.0011209
0.000581662
-0.00112106
0.000496194
-0.00112254
0.000412282
-0.00112524
0.00032945
-0.00112892
0.000247192
-0.00113326
0.000165104
-0.00113803
8.28962e-05
-0.0011431
3.96754e-07
-0.00114846
-8.24627e-05
-0.00115419
-0.000165712
-0.00116053
-0.000249341
-0.0011679
-0.000333353
-0.00117699
-0.000417829
-0.00118873
-0.000503047
-0.00120426
-0.000589608
-0.00122469
-0.000678533
-0.00125043
-0.000771273
-0.00128004
-0.000869367
-0.00130884
-0.000973398
-0.00132777
-0.00108111
-0.00132334
-0.00118504
-0.00127962
-0.00127059
-0.00118286
-0.00131627
-0.00102758
-0.00129748
-0.000822186
-0.00119459
-0.00059107
-0.00100341
-0.000369993
-0.000744015
-0.000193735
-0.00046135
-7.99899e-05
-0.000211543
-2.19453e-05
-3.54112e-05
2.49879e-07
5.99882e-05
3.27387e-06
8.68119e-05
5.1032e-05
-4.4496e-05
0.000129764
-0.000123393
0.000288688
-0.000218973
0.000431757
-0.000326563
0.000584418
-0.000442224
0.000740479
-0.000560147
0.000886778
-0.000673382
0.00101032
-0.000775336
0.00110086
-0.000861
0.00115268
-0.00092763
0.0011652
-0.000974938
0.00114222
-0.00100487
0.0010907
-0.00102104
0.00101905
-0.0010278
0.000935455
-0.00102937
0.000846602
-0.00102909
0.000756974
-0.00102912
0.000668897
-0.00103052
0.000583055
-0.0010335
0.000499176
-0.00103783
0.000416617
-0.00104311
0.000334725
-0.00104892
0.000253008
-0.00105497
0.000171148
-0.00106104
8.89695e-05
-0.00106704
6.40095e-06
-0.00107294
-7.65655e-05
-0.00107875
-0.000159901
-0.00108455
-0.000243539
-0.00109052
-0.000327388
-0.00109698
-0.000411371
-0.00110453
-0.000495489
-0.00111422
-0.000579925
-0.00112749
-0.000665259
-0.00114604
-0.000752722
-0.0011711
-0.000844313
-0.00120205
-0.000942441
-0.00123452
-0.00104865
-0.00125849
-0.00116107
-0.00125815
-0.00127093
-0.00121463
-0.00135979
-0.00111203
-0.00140007
-0.000945539
-0.00136108
-0.000728133
-0.00122082
-0.000491767
-0.000980381
-0.000279075
-0.000674042
-0.000125359
-0.00036526
-3.96765e-05
-0.000121094
-4.39011e-06
2.47018e-05
3.03258e-06
7.93891e-05
5.40646e-05
-4.8312e-05
0.000178076
-0.000131957
0.000372333
-0.000230708
0.000530507
-0.00033876
0.00069247
-0.000451335
0.000853053
-0.000562206
0.000997649
-0.000664667
0.00111278
-0.000752973
0.00118916
-0.000823382
0.00122309
-0.000874648
0.00121646
-0.000908012
0.00117558
-0.000926729
0.00110942
-0.000935199
0.00102752
-0.000937917
0.000938173
-0.000938583
0.000847267
-0.000939627
0.000758018
-0.000942206
0.000671476
-0.00094652
0.000587369
-0.000952238
0.000504894
-0.000958852
0.000423231
-0.000965902
0.000341775
-0.000973061
0.000260166
-0.00098014
0.000178227
-0.00098706
9.58893e-05
-0.000993798
1.31391e-05
-0.00100035
-7.00087e-05
-0.00100674
-0.000153521
-0.00101293
-0.000237345
-0.00101892
-0.000321394
-0.00102475
-0.000405548
-0.00103058
-0.000489657
-0.0010369
-0.000573605
-0.00104469
-0.000657472
-0.00105559
-0.000741814
-0.00107186
-0.000828042
-0.00109559
-0.000918719
-0.00112696
-0.00101728
-0.00116164
-0.00112638
-0.00118832
-0.00124424
-0.00118836
-0.00135975
-0.00113968
-0.00144876
-0.00102508
-0.00147568
-0.000842646
-0.00140326
-0.000613011
-0.00121002
-0.000377931
-0.000909123
-0.000185676
-0.000557514
-6.59167e-05
-0.000240854
-1.23345e-05
-2.88805e-05
2.04215e-06
6.50125e-05
5.61067e-05
-4.97078e-05
0.000227783
-0.000135091
0.000457717
-0.000233929
0.000629345
-0.000339361
0.000797902
-0.000446053
0.000959745
-0.000547762
0.00109936
-0.000638354
0.00120338
-0.000713132
0.00126394
-0.000769685
0.00127965
-0.000808187
0.00125496
-0.000831151
0.00119855
-0.000842685
0.00112095
-0.00084741
0.00103224
-0.000849388
0.000940151
-0.000851437
0.000849316
-0.000854969
0.000761549
-0.000860272
0.000676779
-0.000866989
0.000594087
-0.000874549
0.000512454
-0.000882441
0.000431123
-0.000890327
0.000349661
-0.000898042
0.000267881
-0.000905545
0.000185731
-0.000912865
0.000103209
-0.000920051
2.03251e-05
-0.000927147
-6.29134e-05
-0.000934166
-0.000146501
-0.000941084
-0.000230427
-0.000947825
-0.000314653
-0.000954279
-0.000399094
-0.000960336
-0.0004836
-0.000965985
-0.000567956
-0.000971515
-0.000651942
-0.000977826
-0.000735503
-0.000986734
-0.000819133
-0.001001
-0.000904456
-0.00102352
-0.000994759
-0.00105519
-0.00109471
-0.00109136
-0.00120807
-0.00111857
-0.00133254
-0.00111455
-0.00145278
-0.00105411
-0.00153611
-0.000920628
-0.00153675
-0.000718617
-0.00141203
-0.000480259
-0.00114748
-0.000258244
-0.00077953
-0.000101487
-0.000397611
-2.37468e-05
-0.00010662
3.09348e-07
4.09563e-05
5.64161e-05
-4.85966e-05
0.00027638
-0.000132765
0.000541885
-0.000228871
0.000725451
-0.000329111
0.000898142
-0.000427878
0.00105851
-0.000519229
0.00119071
-0.00059782
0.00128197
-0.000660075
0.0013262
-0.000704849
0.00132442
-0.000733514
0.00128363
-0.000749466
0.0012145
-0.000757152
0.00112864
-0.000760901
0.00103599
-0.000763992
0.000943242
-0.00076825
0.000853574
-0.000774208
0.000767507
-0.000781579
0.000684151
-0.000789767
0.000602274
-0.000798212
0.0005209
-0.000806553
0.000439464
-0.000814629
0.000357738
-0.000822429
0.000275681
-0.000830018
0.000193319
-0.000837486
0.000110678
-0.000844919
2.7758e-05
-0.000852381
-5.54521e-05
-0.000859899
-0.000138983
-0.000867465
-0.000222861
-0.000875022
-0.000307096
-0.000882445
-0.00039167
-0.00088954
-0.000476506
-0.000896062
-0.000561434
-0.000901828
-0.000646176
-0.000906947
-0.000730385
-0.00091222
-0.00081386
-0.000919622
-0.000897055
-0.000932469
-0.000981912
-0.000954499
-0.00107268
-0.000987
-0.00117557
-0.00102418
-0.00129536
-0.0010492
-0.00142776
-0.00103534
-0.00154997
-0.000955206
-0.00161688
-0.000796154
-0.00157108
-0.000574332
-0.0013693
-0.000337227
-0.00101663
-0.000146121
-0.000588716
-3.9003e-05
-0.000213738
-2.30565e-06
4.25891e-06
5.41104e-05
-4.50977e-05
0.000321478
-0.000125318
0.000622106
-0.000216265
0.000816398
-0.00030931
0.000991187
-0.000398816
0.00114802
-0.000479367
0.00127126
-0.000546517
0.00134912
-0.000597775
0.00137745
-0.000633084
0.00135973
-0.000654688
0.00130523
-0.000666429
0.00122624
-0.000672632
0.00113484
-0.000676991
0.00104035
-0.000681873
0.000948123
-0.000688227
0.000859929
-0.000695975
0.000775256
-0.000704561
0.000692736
-0.000713388
0.000611101
-0.000722051
0.000529562
-0.000730374
0.000447787
-0.000738353
0.000365717
-0.000746075
0.000283402
-0.000753654
0.000200899
-0.000761201
0.000118225
-0.0007688
3.53575e-05
-0.000776516
-4.77365e-05
-0.000784382
-0.000131117
-0.000792408
-0.000214835
-0.000800569
-0.000298935
-0.000808786
-0.000383453
-0.000816902
-0.00046839
-0.00082466
-0.000553676
-0.000831713
-0.000639122
-0.00083772
-0.000724378
-0.00084262
-0.00080896
-0.000847161
-0.000892514
-0.000853572
-0.000975501
-0.000865837
-0.00106042
-0.000888472
-0.00115294
-0.000922624
-0.00126121
-0.000960006
-0.00139037
-0.000978736
-0.00153124
-0.000947191
-0.00164843
-0.000838404
-0.00167987
-0.000649537
-0.00155817
-0.000414646
-0.00125153
-0.000197774
-0.000805588
-5.87641e-05
-0.000352749
-5.87502e-06
-4.86302e-05
4.82354e-05
-3.94834e-05
0.000360961
-0.000113352
0.000695974
-0.00019715
0.000900196
-0.000281548
0.00107558
-0.000361056
0.00122753
-0.000430922
0.00134112
-0.00048761
0.0014058
-0.000529593
0.00141944
-0.000557642
0.00138778
-0.000574512
0.0013221
-0.000584082
0.00123581
-0.000590222
0.00114098
-0.000595838
0.00104597
-0.000602447
0.000954733
-0.000610353
0.000867835
-0.00061915
0.000784052
-0.00062824
0.000701827
-0.000637166
0.000620026
-0.000645706
0.000538103
-0.000653844
0.000455925
-0.000661673
0.000373546
-0.000669324
0.000291053
-0.00067692
0.000208495
-0.000684561
0.000125865
-0.000692319
4.31157e-05
-0.000700248
-3.98075e-05
-0.000708378
-0.000122987
-0.000716727
-0.000206486
-0.00072529
-0.000290371
-0.000734034
-0.00037471
-0.000742868
-0.000459556
-0.000751616
-0.000544928
-0.000759975
-0.000630763
-0.000767504
-0.000716848
-0.000773725
-0.00080274
-0.000778451
-0.000887788
-0.000782467
-0.000971485
-0.000788424
-0.00105446
-0.000801162
-0.0011402
-0.000825833
-0.00123654
-0.000862372
-0.00135384
-0.000897878
-0.00149574
-0.000903606
-0.0016427
-0.000844162
-0.00173931
-0.000698617
-0.00170371
-0.000482271
-0.00146787
-0.000252361
-0.0010355
-8.31771e-05
-0.000521932
-1.03789e-05
-0.000121428
3.78565e-05
-3.21257e-05
0.000393087
-9.76129e-05
0.000761461
-0.000172713
0.000975297
-0.000247496
0.00115037
-0.000316725
0.00129676
-0.000376374
0.00140077
-0.000423763
0.00145319
-0.00045814
0.00145381
-0.000480816
0.00141045
-0.000494706
0.00133599
-0.00050341
0.00124451
-0.000510156
0.00114773
-0.000517067
0.00105288
-0.000524985
0.000962651
-0.000533815
0.000876665
-0.000543045
0.000793283
-0.000552177
0.000710958
-0.000560924
0.000628773
-0.000569226
0.000546405
-0.000577167
0.000463866
-0.000584886
0.000381265
-0.000592517
0.000298685
-0.000600172
0.000216149
-0.000607933
0.000133627
-0.00061586
5.10424e-05
-0.000623996
-3.16714e-05
-0.000632365
-0.000114618
-0.000640982
-0.000197869
-0.000649852
-0.000281501
-0.000658961
-0.0003656
-0.000668269
-0.000450249
-0.000677677
-0.00053552
-0.00068699
-0.00062145
-0.000695862
-0.000707977
-0.000703763
-0.000794838
-0.000710093
-0.000881458
-0.000714596
-0.000966982
-0.000718261
-0.00105079
-0.000724455
-0.00113401
-0.000739078
-0.00122192
-0.000767404
-0.00132551
-0.000806184
-0.00145696
-0.000835032
-0.00161385
-0.000817445
-0.0017569
-0.000718682
-0.00180248
-0.000533486
-0.00165307
-0.000304593
-0.00126439
-0.00011123
-0.000715295
-1.58202e-05
-0.000216838
2.20362e-05
-2.34481e-05
0.000416535
-7.89066e-05
0.00081692
-0.000144152
0.00104054
-0.00020874
0.00121495
-0.000267726
0.00135574
-0.000317812
0.00145086
-0.000357061
0.00149244
-0.000385292
0.00148204
-0.000404067
0.00142923
-0.000416173
0.0013481
-0.000424718
0.00125306
-0.000432235
0.00115525
-0.000440164
0.00106081
-0.000448879
0.000971367
-0.000458095
0.000885881
-0.000467337
0.000802525
-0.000476253
0.000719874
-0.000484713
0.000637234
-0.000492766
0.000554458
-0.000500544
0.000471644
-0.000508192
0.000388913
-0.000515834
0.000306326
-0.000523561
0.000223877
-0.000531446
0.000141511
-0.000539539
5.91357e-05
-0.000547881
-2.33296e-05
-0.000556489
-0.00010601
-0.000565372
-0.000188985
-0.000574535
-0.000272338
-0.000583969
-0.000356166
-0.000593652
-0.000440566
-0.000603534
-0.000525638
-0.000613507
-0.000611477
-0.000623351
-0.000698132
-0.000632663
-0.000785526
-0.000640819
-0.000873303
-0.000647112
-0.000960689
-0.000651328
-0.00104658
-0.000654931
-0.0011304
-0.000662408
-0.00121444
-0.000680788
-0.00130713
-0.000714134
-0.00142361
-0.000752718
-0.00157527
-0.000765678
-0.00174394
-0.00071099
-0.00185716
-0.000564444
-0.00179961
-0.000349429
-0.00147941
-0.000140926
-0.000923798
-2.2097e-05
-0.000335667
-6.08239e-08
-1.38918e-05
0.000430427
-5.80312e-05
0.000861059
-0.000112593
0.00109511
-0.000166696
0.00126906
-0.000215667
0.00140471
-0.000256884
0.00149208
-0.000289033
0.00152459
-0.000312287
0.0015053
-0.00032822
0.00144516
-0.000339269
0.00135915
-0.000347943
0.00126173
-0.000356108
0.00116341
-0.000364668
0.00106937
-0.000373716
0.000980414
-0.000382921
0.000895086
-0.000391914
0.000811517
-0.000400488
0.000728448
-0.000408629
0.000645375
-0.000416443
0.000562272
-0.000424077
0.000479277
-0.000431664
0.0003965
-0.000439309
0.000313972
-0.000447092
0.00023166
-0.000455079
0.000149498
-0.000463321
6.73779e-05
-0.00047186
-1.47903e-05
-0.00048071
-9.71607e-05
-0.000489877
-0.000179818
-0.000499359
-0.000262857
-0.000509142
-0.000346382
-0.000519209
-0.000430499
-0.000529527
-0.00051532
-0.000540036
-0.000600967
-0.00055061
-0.000687559
-0.000560987
-0.000775148
-0.000570689
-0.000863602
-0.000578979
-0.000952398
-0.00058509
-0.00104047
-0.000589033
-0.00112646
-0.000593184
-0.00121029
-0.000603623
-0.00129669
-0.000628017
-0.00139922
-0.000666282
-0.001537
-0.00069761
-0.00171261
-0.000679891
-0.00187488
-0.000574317
-0.00190519
-0.000383157
-0.00167057
-0.000169689
-0.00113726
-2.94203e-05
-0.000475936
-2.94811e-05
-3.87661e-06
0.000434303
-3.57512e-05
0.000892934
-7.90448e-05
0.0011384
-0.000122565
0.00131258
-0.000161833
0.00144398
-0.000194828
0.00152507
-0.000220723
0.00155049
-0.000239869
0.00152444
-0.000253653
0.00145895
-0.000264024
0.00136952
-0.000272855
0.00127056
-0.000281419
0.00117198
-0.000290233
0.00107818
-0.000299244
0.000989425
-0.000308166
0.000904008
-0.000316755
0.000820106
-0.000324924
0.000736618
-0.000332731
0.000653181
-0.000340304
0.000569845
-0.000347783
0.000486756
-0.000355285
0.000404003
-0.000362901
0.000321588
-0.000370703
0.000239462
-0.000378754
0.000157549
-0.000387116
7.574e-05
-0.000395835
-6.07097e-06
-0.000404927
-8.80684e-05
-0.000414396
-0.000170349
-0.000424229
-0.000253024
-0.00043441
-0.000336202
-0.000444915
-0.000419994
-0.000455715
-0.00050452
-0.00046677
-0.000589913
-0.000478001
-0.000676327
-0.00048925
-0.0007639
-0.000500191
-0.000852661
-0.000510239
-0.000942349
-0.000518545
-0.00103216
-0.000524371
-0.00112063
-0.000528308
-0.00120635
-0.000534272
-0.00129073
-0.000550199
-0.00138329
-0.000582443
-0.00150476
-0.000621511
-0.00167354
-0.000631425
-0.00186497
-0.000564828
-0.00197178
-0.000403889
-0.00183151
-0.000195075
-0.00134608
-3.78533e-05
-0.000633158
-6.73345e-05
6.06024e-06
0.000428243
-1.27356e-05
0.00091173
-4.43977e-05
0.00117006
-7.73391e-05
0.00134552
-0.000107224
0.00147387
-0.000132528
0.00155038
-0.000152799
0.00157076
-0.000168421
0.00154007
-0.000180458
0.00147098
-0.000190295
0.00137936
-0.000199174
0.00127944
-0.000207864
0.00118067
-0.000216612
0.00108693
-0.000225315
0.000998128
-0.000233772
0.000912466
-0.00024186
0.000828193
-0.000249579
0.000744337
-0.000257025
0.000660628
-0.000264331
0.00057715
-0.000271619
0.000494044
-0.000278993
0.000411377
-0.000286535
0.00032913
-0.00029431
0.000247237
-0.000302384
0.000165622
-0.00031083
8.41862e-05
-0.000319704
2.80347e-06
-0.000329032
-7.874e-05
-0.000338814
-0.000160567
-0.00034903
-0.000242808
-0.000359655
-0.000325576
-0.000370661
-0.000408988
-0.000382019
-0.000493162
-0.000393691
-0.000578241
-0.000405623
-0.000664395
-0.00041771
-0.000751813
-0.000429736
-0.000840635
-0.000441281
-0.000930804
-0.000451631
-0.00102181
-0.000459847
-0.00111242
-0.000465453
-0.00120075
-0.000470207
-0.00128597
-0.000480308
-0.00137319
-0.000504821
-0.00148024
-0.000543988
-0.00163437
-0.000571975
-0.00183698
-0.000539396
-0.00200436
-0.000411521
-0.00195938
-0.000215318
-0.00154228
-4.69715e-05
-0.000801504
-0.000114306