/*--------------------------------*- C++ -*----------------------------------*\
  =========                 |
  \\      /  F ield         | OpenFOAM: The Open Source CFD Toolbox
   \\    /   O peration     | Website:  https://openfoam.org
    \\  /    A nd           | Version:  7
     \\/     M anipulation  |
\*---------------------------------------------------------------------------*/
FoamFile
{
    version     2.0;
    format      ascii;
    class       volVectorField;
    location    "1800";
    object      U;
}
// * * * * * * * * * * * * * * * * * * * * * * * * * * * * * * * * * * * * * //

dimensions      [0 1 -1 0 0 0 0];

internalField   nonuniform List<vector> 
2500
(
(0.000207952 -0.000200714 0)
(0.00186684 -0.000570879 0)
(0.00447451 -0.0006977 0)
(0.00716325 -0.000600064 0)
(0.00922927 -0.000418972 0)
(0.0104506 -0.000264319 0)
(0.0109304 -0.000187988 0)
(0.0108814 -0.000185859 0)
(0.010451 -0.000219845 0)
(0.00963462 -0.000245414 0)
(0.00828323 -0.000228676 0)
(0.00616446 -0.000150779 0)
(0.00302105 -2.6788e-06 0)
(-0.00139071 0.000221006 0)
(-0.00727542 0.000523411 0)
(-0.0147656 0.000908069 0)
(-0.0238836 0.00137499 0)
(-0.0344995 0.00191254 0)
(-0.0462954 0.0024875 0)
(-0.0587453 0.00303756 0)
(-0.0711207 0.00347298 0)
(-0.082528 0.0036892 0)
(-0.0919784 0.00358779 0)
(-0.0984892 0.00310353 0)
(-0.101195 0.00223073 0)
(-0.0994228 0.00102756 0)
(-0.0929036 -0.000375225 0)
(-0.0817116 -0.00181212 0)
(-0.0663146 -0.00310949 0)
(-0.0475693 -0.00410039 0)
(-0.0266945 -0.00463995 0)
(-0.0051726 -0.00460549 0)
(0.0154703 -0.00393499 0)
(0.0337646 -0.00278359 0)
(0.0484036 -0.00137055 0)
(0.0584317 0.000126433 0)
(0.0634691 0.00149754 0)
(0.0637287 0.00253473 0)
(0.0600171 0.00311217 0)
(0.0534998 0.00322498 0)
(0.0454086 0.00298647 0)
(0.0368468 0.00254956 0)
(0.0286511 0.00204864 0)
(0.0213415 0.00157428 0)
(0.0151473 0.00117418 0)
(0.0100797 0.000863374 0)
(0.00602885 0.000631206 0)
(0.00290102 0.000435995 0)
(0.000795276 0.000192768 0)
(-8.20356e-05 -8.74367e-05 0)
(0.000566459 -0.00181764 0)
(0.00437525 -0.00431582 0)
(0.00958231 -0.00511653 0)
(0.0146041 -0.00444048 0)
(0.0181617 -0.00299823 0)
(0.0197686 -0.00145775 0)
(0.0194633 -0.000192443 0)
(0.017457 0.000765611 0)
(0.0138349 0.00162519 0)
(0.0084082 0.00266501 0)
(0.000740102 0.00410236 0)
(-0.00972555 0.00604317 0)
(-0.0235178 0.00849162 0)
(-0.0409991 0.0113807 0)
(-0.0622496 0.0145719 0)
(-0.0869622 0.0178396 0)
(-0.114379 0.0208635 0)
(-0.143306 0.0232513 0)
(-0.17222 0.0245943 0)
(-0.199442 0.0245351 0)
(-0.223315 0.0228271 0)
(-0.242359 0.0193704 0)
(-0.255375 0.0142294 0)
(-0.261507 0.0076363 0)
(-0.260279 -1.86632e-05 0)
(-0.251624 -0.00821945 0)
(-0.235736 -0.0163955 0)
(-0.213066 -0.0239927 0)
(-0.184379 -0.0304485 0)
(-0.150762 -0.0352293 0)
(-0.113624 -0.0378726 0)
(-0.074668 -0.0380341 0)
(-0.0358013 -0.0355702 0)
(0.00104325 -0.0306641 0)
(0.0340197 -0.0238142 0)
(0.0614509 -0.0157466 0)
(0.0820199 -0.0072823 0)
(0.0950059 0.000696054 0)
(0.100274 0.0073452 0)
(0.0984392 0.0120831 0)
(0.0909564 0.0147124 0)
(0.079612 0.015435 0)
(0.066232 0.0147156 0)
(0.0524142 0.0131077 0)
(0.0393366 0.0111172 0)
(0.0276935 0.00911026 0)
(0.0177731 0.0072487 0)
(0.00968204 0.00543453 0)
(0.00372612 0.0033431 0)
(0.000329274 0.0009184 0)
(0.00078584 -0.00449492 0)
(0.00568881 -0.00969442 0)
(0.0117183 -0.0109167 0)
(0.0169071 -0.00900553 0)
(0.0197647 -0.00542394 0)
(0.0197139 -0.0014698 0)
(0.0166725 0.00215248 0)
(0.0106384 0.00542286 0)
(0.00138633 0.00878041 0)
(-0.0116154 0.0127915 0)
(-0.0290796 0.0178421 0)
(-0.0516339 0.0240095 0)
(-0.079584 0.0310822 0)
(-0.1127 0.0385966 0)
(-0.150109 0.0458726 0)
(-0.190335 0.0520913 0)
(-0.23149 0.0564294 0)
(-0.271538 0.0582007 0)
(-0.308557 0.0569588 0)
(-0.340919 0.0525373 0)
(-0.367387 0.0450354 0)
(-0.387116 0.0347695 0)
(-0.399596 0.0222126 0)
(-0.404562 0.00794334 0)
(-0.401938 -0.00738923 0)
(-0.391703 -0.0231 0)
(-0.373898 -0.0384754 0)
(-0.34879 -0.0527302 0)
(-0.316857 -0.0650327 0)
(-0.278871 -0.0745406 0)
(-0.23593 -0.0804767 0)
(-0.189465 -0.0822339 0)
(-0.141234 -0.0794851 0)
(-0.093242 -0.0722844 0)
(-0.0476035 -0.061178 0)
(-0.00631205 -0.0471725 0)
(0.0289103 -0.0315599 0)
(0.0567056 -0.0157872 0)
(0.0763821 -0.00114422 0)
(0.0876662 0.0111725 0)
(0.0908213 0.0202553 0)
(0.0871011 0.0257409 0)
(0.0782109 0.0278617 0)
(0.0660407 0.0273073 0)
(0.0523906 0.0249766 0)
(0.0387217 0.0217248 0)
(0.026034 0.0181222 0)
(0.0149679 0.0142391 0)
(0.00625644 0.00958292 0)
(0.000705203 0.0035866 0)
(0.000917713 -0.00772667 0)
(0.00606866 -0.0155921 0)
(0.0115468 -0.0165377 0)
(0.0151648 -0.0124518 0)
(0.0154194 -0.0057339 0)
(0.0117518 0.00169914 0)
(0.00393759 0.00894182 0)
(-0.00837192 0.0161025 0)
(-0.0258419 0.023944 0)
(-0.0492877 0.0332173 0)
(-0.0793467 0.0442025 0)
(-0.116117 0.0565586 0)
(-0.15893 0.0694102 0)
(-0.206335 0.0815346 0)
(-0.256291 0.0916029 0)
(-0.306515 0.0984291 0)
(-0.354834 0.101166 0)
(-0.39944 0.0993919 0)
(-0.439 0.0930921 0)
(-0.472633 0.0825657 0)
(-0.499817 0.068317 0)
(-0.520259 0.0509473 0)
(-0.533758 0.0310795 0)
(-0.540143 0.00934404 0)
(-0.539263 -0.0135888 0)
(-0.530943 -0.0369798 0)
(-0.515047 -0.0599908 0)
(-0.491534 -0.0816683 0)
(-0.46052 -0.100938 0)
(-0.422336 -0.116646 0)
(-0.3776 -0.127662 0)
(-0.327314 -0.132995 0)
(-0.272951 -0.131951 0)
(-0.216458 -0.124315 0)
(-0.160147 -0.110524 0)
(-0.106496 -0.0916916 0)
(-0.0578539 -0.0695187 0)
(-0.0160917 -0.0460062 0)
(0.0175964 -0.0230685 0)
(0.0426213 -0.00244862 0)
(0.0589204 0.0146171 0)
(0.066754 0.0272051 0)
(0.0672337 0.0349408 0)
(0.0619149 0.038166 0)
(0.0525876 0.0377849 0)
(0.041043 0.0349331 0)
(0.0288322 0.0305681 0)
(0.01719 0.0250317 0)
(0.00742143 0.0177399 0)
(0.00086212 0.00736581 0)
(0.000999788 -0.0110179 0)
(0.00561124 -0.0208276 0)
(0.00922982 -0.0203486 0)
(0.00967945 -0.0129026 0)
(0.0056219 -0.00193683 0)
(-0.00346156 0.0101256 0)
(-0.0180354 0.0223839 0)
(-0.0388552 0.0352816 0)
(-0.0668547 0.0497586 0)
(-0.102686 0.0663407 0)
(-0.146248 0.0846555 0)
(-0.196465 0.103473 0)
(-0.251399 0.121062 0)
(-0.308604 0.135628 0)
(-0.365572 0.145687 0)
(-0.420124 0.150285 0)
(-0.470618 0.149059 0)
(-0.515969 0.142132 0)
(-0.555541 0.129953 0)
(-0.58901 0.113145 0)
(-0.616229 0.0923901 0)
(-0.637107 0.0683407 0)
(-0.651562 0.0416171 0)
(-0.659526 0.0128592 0)
(-0.660917 -0.017258 0)
(-0.65559 -0.0480211 0)
(-0.643304 -0.0785966 0)
(-0.623795 -0.107961 0)
(-0.596797 -0.134908 0)
(-0.562073 -0.158089 0)
(-0.519549 -0.176053 0)
(-0.469523 -0.187331 0)
(-0.412824 -0.19065 0)
(-0.350928 -0.185239 0)
(-0.286032 -0.17109 0)
(-0.22097 -0.149137 0)
(-0.158914 -0.121264 0)
(-0.102867 -0.0900753 0)
(-0.055115 -0.0584258 0)
(-0.016845 -0.028833 0)
(0.0118171 -0.00307154 0)
(0.0312509 0.0176568 0)
(0.0420101 0.0326821 0)
(0.045299 0.0418504 0)
(0.0426371 0.0457005 0)
(0.0357508 0.0453008 0)
(0.0264032 0.0417607 0)
(0.0162525 0.0356006 0)
(0.00711053 0.0261578 0)
(0.00079657 0.0113831 0)
(0.000995795 -0.0139231 0)
(0.00416243 -0.0242951 0)
(0.00458244 -0.0208795 0)
(0.000398167 -0.00872794 0)
(-0.00946344 0.00765784 0)
(-0.0255648 0.0255959 0)
(-0.0486488 0.0444846 0)
(-0.0796959 0.0649969 0)
(-0.11942 0.0877898 0)
(-0.16764 0.11255 0)
(-0.223009 0.137823 0)
(-0.283227 0.161456 0)
(-0.345526 0.181229 0)
(-0.407213 0.195362 0)
(-0.466066 0.202786 0)
(-0.520503 0.203156 0)
(-0.56955 0.196696 0)
(-0.612693 0.18398 0)
(-0.649737 0.165749 0)
(-0.680692 0.1428 0)
(-0.705687 0.115885 0)
(-0.724896 0.0856808 0)
(-0.738545 0.0528443 0)
(-0.746861 0.0180201 0)
(-0.749941 -0.0182147 0)
(-0.747748 -0.0552863 0)
(-0.740094 -0.092472 0)
(-0.726584 -0.128849 0)
(-0.706594 -0.163319 0)
(-0.679323 -0.194532 0)
(-0.643974 -0.220821 0)
(-0.599933 -0.240282 0)
(-0.54696 -0.251026 0)
(-0.485482 -0.251475 0)
(-0.416909 -0.240712 0)
(-0.343792 -0.21888 0)
(-0.269706 -0.187488 0)
(-0.198835 -0.149398 0)
(-0.13523 -0.108383 0)
(-0.0818939 -0.0683163 0)
(-0.040117 -0.0323186 0)
(-0.00952334 -0.00225321 0)
(0.0110546 0.0211483 0)
(0.0228075 0.037605 0)
(0.0271638 0.0473326 0)
(0.0257871 0.0511133 0)
(0.0204679 0.0499413 0)
(0.0130797 0.0443214 0)
(0.00575001 0.0334785 0)
(0.000591107 0.0148945 0)
(0.000839998 -0.0158649 0)
(0.00148499 -0.0247715 0)
(-0.00259339 -0.0166967 0)
(-0.0126826 0.0014472 0)
(-0.0295673 0.0244012 0)
(-0.0539218 0.0495681 0)
(-0.0866457 0.0766391 0)
(-0.128499 0.106078 0)
(-0.179356 0.137638 0)
(-0.237789 0.169773 0)
(-0.301272 0.200002 0)
(-0.366773 0.225693 0)
(-0.431378 0.24473 0)
(-0.492722 0.25585 0)
(-0.549147 0.25866 0)
(-0.59966 0.253445 0)
(-0.643781 0.240905 0)
(-0.681406 0.221944 0)
(-0.712721 0.197546 0)
(-0.738122 0.168668 0)
(-0.758118 0.136153 0)
(-0.773291 0.100749 0)
(-0.784251 0.0631277 0)
(-0.791481 0.0238124 0)
(-0.795259 -0.0168089 0)
(-0.795737 -0.0583223 0)
(-0.792874 -0.100234 0)
(-0.786221 -0.141954 0)
(-0.774983 -0.182694 0)
(-0.758076 -0.221273 0)
(-0.734183 -0.256044 0)
(-0.701807 -0.284966 0)
(-0.659504 -0.305714 0)
(-0.606298 -0.315856 0)
(-0.542137 -0.313261 0)
(-0.468296 -0.296697 0)
(-0.387666 -0.266434 0)
(-0.304736 -0.224622 0)
(-0.225044 -0.175274 0)
(-0.154063 -0.12362 0)
(-0.0957923 -0.0748545 0)
(-0.0516898 -0.0327713 0)
(-0.0207413 0.000877319 0)
(-0.00073857 0.0259552 0)
(0.0103138 0.0427944 0)
(0.0143183 0.052017 0)
(0.0132107 0.05442 0)
(0.00901501 0.0503565 0)
(0.00400157 0.0389289 0)
(0.000362327 0.0174931 0)
(0.000465283 -0.0160985 0)
(-0.00257173 -0.0209766 0)
(-0.0122815 -0.00662211 0)
(-0.0292285 0.0186533 0)
(-0.0539432 0.0492655 0)
(-0.0871772 0.0828699 0)
(-0.129655 0.119114 0)
(-0.181385 0.157653 0)
(-0.241044 0.196934 0)
(-0.306046 0.234246 0)
(-0.373154 0.266543 0)
(-0.439201 0.291285 0)
(-0.501581 0.306908 0)
(-0.55845 0.312874 0)
(-0.608694 0.309476 0)
(-0.651806 0.297547 0)
(-0.687758 0.278207 0)
(-0.716907 0.252701 0)
(-0.739914 0.222274 0)
(-0.757616 0.188044 0)
(-0.770923 0.150944 0)
(-0.780759 0.111745 0)
(-0.787941 0.0710063 0)
(-0.793064 0.029043 0)
(-0.796575 -0.0139162 0)
(-0.798792 -0.0576462 0)
(-0.79976 -0.102002 0)
(-0.799125 -0.146797 0)
(-0.796248 -0.191591 0)
(-0.790131 -0.235551 0)
(-0.779288 -0.277409 0)
(-0.761735 -0.31538 0)
(-0.735185 -0.347042 0)
(-0.697373 -0.369407 0)
(-0.646473 -0.379287 0)
(-0.581718 -0.373871 0)
(-0.504115 -0.351462 0)
(-0.416954 -0.312298 0)
(-0.325816 -0.259201 0)
(-0.237856 -0.197604 0)
(-0.160267 -0.134588 0)
(-0.098229 -0.0769936 0)
(-0.0533061 -0.0293662 0)
(-0.0235724 0.00687687 0)
(-0.00555511 0.0324545 0)
(0.0036187 0.0482978 0)
(0.0064613 0.0552512 0)
(0.00529117 0.0535901 0)
(0.00248832 0.0423783 0)
(0.000209314 0.0191578 0)
(-0.000171554 -0.0137896 0)
(-0.00796326 -0.0118364 0)
(-0.024117 0.0101944 0)
(-0.0484312 0.0434962 0)
(-0.0812238 0.08263 0)
(-0.123131 0.125378 0)
(-0.174292 0.170811 0)
(-0.233634 0.217333 0)
(-0.298694 0.262093 0)
(-0.366137 0.30164 0)
(-0.432541 0.332911 0)
(-0.495 0.353893 0)
(-0.551398 0.363781 0)
(-0.600433 0.362795 0)
(-0.641526 0.351881 0)
(-0.674705 0.332414 0)
(-0.700499 0.305962 0)
(-0.719815 0.27412 0)
(-0.733785 0.238348 0)
(-0.743594 0.199844 0)
(-0.750381 0.159536 0)
(-0.755157 0.118077 0)
(-0.758698 0.0758165 0)
(-0.761583 0.032899 0)
(-0.764299 -0.0105907 0)
(-0.767171 -0.0546679 0)
(-0.770277 -0.0994722 0)
(-0.77352 -0.145079 0)
(-0.77662 -0.191369 0)
(-0.778919 -0.238009 0)
(-0.779207 -0.284336 0)
(-0.775672 -0.329105 0)
(-0.765887 -0.370262 0)
(-0.746857 -0.404899 0)
(-0.715312 -0.429363 0)
(-0.668381 -0.439572 0)
(-0.6045 -0.431722 0)
(-0.524359 -0.403379 0)
(-0.431639 -0.354705 0)
(-0.33316 -0.289363 0)
(-0.23797 -0.21456 0)
(-0.155213 -0.139703 0)
(-0.091241 -0.0736129 0)
(-0.0473964 -0.0215254 0)
(-0.0204247 0.0158114 0)
(-0.00546885 0.0401196 0)
(0.00120717 0.052783 0)
(0.00267534 0.0543903 0)
(0.00160652 0.0442041 0)
(0.000183973 0.0201692 0)
(-0.00107219 -0.00817005 0)
(-0.0144136 0.00339829 0)
(-0.0373631 0.0341325 0)
(-0.0690368 0.0760336 0)
(-0.109491 0.12412 0)
(-0.15898 0.175932 0)
(-0.216761 0.229497 0)
(-0.280677 0.281859 0)
(-0.347455 0.329204 0)
(-0.413482 0.367865 0)
(-0.47553 0.395208 0)
(-0.531154 0.409987 0)
(-0.578805 0.412234 0)
(-0.617784 0.402949 0)
(-0.648148 0.383755 0)
(-0.670582 0.356594 0)
(-0.68623 0.323467 0)
(-0.696493 0.286217 0)
(-0.702801 0.24636 0)
(-0.70645 0.205018 0)
(-0.708529 0.162946 0)
(-0.709864 0.120562 0)
(-0.711017 0.0780064 0)
(-0.712406 0.0352886 0)
(-0.714365 -0.00766258 0)
(-0.717114 -0.0510311 0)
(-0.72077 -0.0950366 0)
(-0.725474 -0.139852 0)
(-0.731265 -0.185622 0)
(-0.73793 -0.232446 0)
(-0.744896 -0.280216 0)
(-0.751075 -0.328365 0)
(-0.754591 -0.375661 0)
(-0.75259 -0.419949 0)
(-0.741316 -0.457902 0)
(-0.716516 -0.484986 0)
(-0.674214 -0.495916 0)
(-0.611869 -0.48566 0)
(-0.529757 -0.45089 0)
(-0.432077 -0.391672 0)
(-0.327162 -0.312791 0)
(-0.226232 -0.223837 0)
(-0.140476 -0.137169 0)
(-0.077113 -0.0638108 0)
(-0.036588 -0.00930184 0)
(-0.0137788 0.0268109 0)
(-0.00262481 0.0471537 0)
(0.00130445 0.0532544 0)
(0.00144733 0.0450221 0)
(0.000288235 0.0209471 0)
(-0.00217933 0.00130742 0)
(-0.0214247 0.0250158 0)
(-0.0510181 0.0650541 0)
(-0.0894959 0.115734 0)
(-0.136545 0.172602 0)
(-0.191808 0.232548 0)
(-0.253589 0.292322 0)
(-0.318882 0.3478 0)
(-0.384018 0.394675 0)
(-0.445479 0.429528 0)
(-0.500458 0.45045 0)
(-0.547098 0.457098 0)
(-0.584515 0.450407 0)
(-0.612737 0.432204 0)
(-0.632562 0.404817 0)
(-0.645352 0.370704 0)
(-0.652756 0.332146 0)
(-0.656437 0.291018 0)
(-0.657841 0.248675 0)
(-0.658097 0.205975 0)
(-0.657997 0.163369 0)
(-0.658025 0.121001 0)
(-0.658456 0.078839 0)
(-0.659448 0.0367753 0)
(-0.661101 -0.00536264 0)
(-0.663537 -0.0477729 0)
(-0.666876 -0.0906199 0)
(-0.671322 -0.134079 0)
(-0.677081 -0.178395 0)
(-0.68433 -0.223848 0)
(-0.693148 -0.270661 0)
(-0.703295 -0.318906 0)
(-0.713873 -0.368303 0)
(-0.723021 -0.417832 0)
(-0.727653 -0.465236 0)
(-0.723378 -0.506647 0)
(-0.704853 -0.536529 0)
(-0.666806 -0.548173 0)
(-0.605656 -0.534967 0)
(-0.521359 -0.492481 0)
(-0.418874 -0.420876 0)
(-0.308425 -0.326717 0)
(-0.203739 -0.222882 0)
(-0.117975 -0.125392 0)
(-0.0584533 -0.0473686 0)
(-0.0236422 0.00624913 0)
(-0.00618788 0.0377659 0)
(0.000680306 0.0503946 0)
(0.00181032 0.0453583 0)
(0.00048584 0.0218748 0)
(-0.00335773 0.0148765 0)
(-0.0283496 0.0528149 0)
(-0.0639626 0.102335 0)
(-0.1082 0.161513 0)
(-0.160269 0.226356 0)
(-0.219097 0.292803 0)
(-0.282163 0.356345 0)
(-0.345951 0.412059 0)
(-0.406759 0.45561 0)
(-0.461419 0.484175 0)
(-0.507702 0.496769 0)
(-0.544454 0.494061 0)
(-0.571577 0.477965 0)
(-0.5899 0.451156 0)
(-0.600945 0.416589 0)
(-0.606588 0.377052 0)
(-0.60871 0.334842 0)
(-0.608916 0.291599 0)
(-0.60839 0.248314 0)
(-0.607881 0.205452 0)
(-0.607777 0.163126 0)
(-0.608214 0.121247 0)
(-0.609196 0.0796592 0)
(-0.61066 0.0381863 0)
(-0.612547 -0.00334473 0)
(-0.61491 -0.0450592 0)
(-0.617815 -0.0870468 0)
(-0.621402 -0.129419 0)
(-0.625901 -0.172346 0)
(-0.631659 -0.216059 0)
(-0.639089 -0.260875 0)
(-0.648538 -0.307215 0)
(-0.66008 -0.355476 0)
(-0.67319 -0.40571 0)
(-0.686244 -0.457131 0)
(-0.695994 -0.507471 0)
(-0.697359 -0.552329 0)
(-0.683853 -0.584895 0)
(-0.648857 -0.596593 0)
(-0.587723 -0.578905 0)
(-0.500272 -0.526293 0)
(-0.392719 -0.439522 0)
(-0.277811 -0.328018 0)
(-0.172118 -0.209258 0)
(-0.0902932 -0.103556 0)
(-0.0383197 -0.0252639 0)
(-0.0113356 0.0229148 0)
(-0.000153643 0.0453715 0)
(0.00229752 0.0453572 0)
(0.000720683 0.0231575 0)
(-0.00444344 0.0323852 0)
(-0.0345357 0.0861314 0)
(-0.0751396 0.144917 0)
(-0.123721 0.211866 0)
(-0.178947 0.283344 0)
(-0.239063 0.354219 0)
(-0.300964 0.418936 0)
(-0.360959 0.472186 0)
(-0.415582 0.509998 0)
(-0.462196 0.530406 0)
(-0.49927 0.533503 0)
(-0.526452 0.521067 0)
(-0.544477 0.496013 0)
(-0.554927 0.461782 0)
(-0.55985 0.421741 0)
(-0.561333 0.378709 0)
(-0.561152 0.334698 0)
(-0.56057 0.29089 0)
(-0.560326 0.247793 0)
(-0.560729 0.205472 0)
(-0.561807 0.163765 0)
(-0.563448 0.122442 0)
(-0.565496 0.0812921 0)
(-0.567792 0.0401448 0)
(-0.57023 -0.00111517 0)
(-0.572819 -0.0425431 0)
(-0.575579 -0.0841688 0)
(-0.57856 -0.126017 0)
(-0.581925 -0.168128 0)
(-0.585949 -0.210601 0)
(-0.591033 -0.253659 0)
(-0.597705 -0.297714 0)
(-0.606584 -0.343362 0)
(-0.618157 -0.391298 0)
(-0.632326 -0.442006 0)
(-0.647734 -0.495091 0)
(-0.661048 -0.548279 0)
(-0.666527 -0.596412 0)
(-0.65641 -0.631039 0)
(-0.622591 -0.641266 0)
(-0.559487 -0.61634 0)
(-0.467306 -0.549815 0)
(-0.35435 -0.444131 0)
(-0.236693 -0.31337 0)
(-0.133899 -0.181253 0)
(-0.0609065 -0.0724151 0)
(-0.0200551 -0.000193638 0)
(-0.00226744 0.0369484 0)
(0.00247041 0.0446335 0)
(0.000940117 0.0247558 0)
(-0.00528811 0.053272 0)
(-0.0394222 0.123907 0)
(-0.0836908 0.19143 0)
(-0.134994 0.265058 0)
(-0.191458 0.34149 0)
(-0.250782 0.414571 0)
(-0.309552 0.478008 0)
(-0.36417 0.526504 0)
(-0.411606 0.556758 0)
(-0.44987 0.567863 0)
(-0.478211 0.561108 0)
(-0.497105 0.539419 0)
(-0.508049 0.506636 0)
(-0.513168 0.466742 0)
(-0.514726 0.423198 0)
(-0.514677 0.378523 0)
(-0.514411 0.334202 0)
(-0.514698 0.290848 0)
(-0.515807 0.248501 0)
(-0.517689 0.206919 0)
(-0.52015 0.165791 0)
(-0.522975 0.12485 0)
(-0.52598 0.0839039 0)
(-0.529022 0.0428375 0)
(-0.53202 0.00159444 0)
(-0.534975 -0.0398382 0)
(-0.537902 -0.0814498 0)
(-0.540793 -0.123212 0)
(-0.543711 -0.165086 0)
(-0.546768 -0.207059 0)
(-0.550181 -0.24919 0)
(-0.554345 -0.291677 0)
(-0.559888 -0.334956 0)
(-0.567646 -0.3798 0)
(-0.578465 -0.427277 0)
(-0.592711 -0.478369 0)
(-0.609395 -0.533087 0)
(-0.625079 -0.589086 0)
(-0.633182 -0.640182 0)
(-0.624478 -0.675698 0)
(-0.589365 -0.681759 0)
(-0.52169 -0.645177 0)
(-0.422931 -0.559388 0)
(-0.304702 -0.430484 0)
(-0.18731 -0.279819 0)
(-0.0928438 -0.138944 0)
(-0.0339613 -0.0351779 0)
(-0.00650185 0.0231795 0)
(0.00201324 0.0423172 0)
(0.00111664 0.0264194 0)
(-0.00577041 0.0766314 0)
(-0.0425966 0.164809 0)
(-0.0890425 0.240326 0)
(-0.141401 0.319317 0)
(-0.19732 0.398895 0)
(-0.254138 0.472058 0)
(-0.308377 0.532115 0)
(-0.356741 0.574114 0)
(-0.396756 0.595666 0)
(-0.427148 0.597071 0)
(-0.447954 0.580874 0)
(-0.460402 0.551089 0)
(-0.466549 0.512276 0)
(-0.468762 0.468641 0)
(-0.469188 0.423391 0)
(-0.469385 0.378483 0)
(-0.470218 0.334755 0)
(-0.471969 0.292276 0)
(-0.474546 0.25074 0)
(-0.4777 0.209748 0)
(-0.48117 0.168965 0)
(-0.484759 0.128169 0)
(-0.488342 0.0872359 0)
(-0.491843 0.0461099 0)
(-0.495228 0.00477462 0)
(-0.498526 -0.0367626 0)
(-0.501763 -0.0784773 0)
(-0.504912 -0.120338 0)
(-0.507964 -0.162291 0)
(-0.510913 -0.204272 0)
(-0.513796 -0.246222 0)
(-0.516756 -0.28813 0)
(-0.520132 -0.330147 0)
(-0.524568 -0.372742 0)
(-0.531073 -0.416863 0)
(-0.540875 -0.463957 0)
(-0.554818 -0.51557 0)
(-0.572218 -0.572167 0)
(-0.589388 -0.631138 0)
(-0.598657 -0.684664 0)
(-0.589074 -0.718957 0)
(-0.549603 -0.716468 0)
(-0.474289 -0.661769 0)
(-0.367358 -0.549939 0)
(-0.245345 -0.394029 0)
(-0.133352 -0.226072 0)
(-0.0540418 -0.0858245 0)
(-0.013349 0.00164637 0)
(0.000774115 0.0372275 0)
(0.00125409 0.0277895 0)
(-0.00581475 0.10133 0)
(-0.0438263 0.207356 0)
(-0.0909309 0.290029 0)
(-0.142773 0.372994 0)
(-0.196627 0.453977 0)
(-0.249657 0.525382 0)
(-0.298528 0.580437 0)
(-0.340374 0.614806 0)
(-0.373345 0.627189 0)
(-0.396883 0.619175 0)
(-0.411738 0.594535 0)
(-0.419706 0.558209 0)
(-0.423135 0.515176 0)
(-0.424325 0.469516 0)
(-0.425052 0.423897 0)
(-0.426352 0.379575 0)
(-0.428587 0.336765 0)
(-0.431672 0.295126 0)
(-0.435323 0.254169 0)
(-0.439246 0.213477 0)
(-0.443223 0.172783 0)
(-0.447139 0.131951 0)
(-0.450951 0.0909276 0)
(-0.454648 0.049702 0)
(-0.458236 0.00827655 0)
(-0.461774 -0.0333387 0)
(-0.465304 -0.0751276 0)
(-0.468799 -0.117081 0)
(-0.472229 -0.159165 0)
(-0.475546 -0.201321 0)
(-0.478688 -0.243458 0)
(-0.481609 -0.285465 0)
(-0.484346 -0.327274 0)
(-0.487154 -0.368975 0)
(-0.490683 -0.411041 0)
(-0.496103 -0.454609 0)
(-0.504994 -0.501594 0)
(-0.518662 -0.554195 0)
(-0.536638 -0.613257 0)
(-0.554678 -0.675444 0)
(-0.563522 -0.730333 0)
(-0.550192 -0.759796 0)
(-0.502649 -0.741978 0)
(-0.416579 -0.660322 0)
(-0.301093 -0.515055 0)
(-0.179337 -0.331226 0)
(-0.080522 -0.154852 0)
(-0.0231573 -0.0304515 0)
(-0.00128051 0.0280325 0)
(0.00137191 0.028489 0)
(-0.00539784 0.126125 0)
(-0.0430552 0.250042 0)
(-0.0893748 0.339049 0)
(-0.139321 0.424663 0)
(-0.189909 0.505527 0)
(-0.238302 0.573732 0)
(-0.28145 0.622697 0)
(-0.316995 0.648904 0)
(-0.343707 0.652252 0)
(-0.361681 0.63562 0)
(-0.372226 0.603892 0)
(-0.377471 0.562675 0)
(-0.379773 0.51704 0)
(-0.38113 0.470642 0)
(-0.382823 0.425442 0)
(-0.385386 0.381997 0)
(-0.388799 0.340027 0)
(-0.39278 0.298956 0)
(-0.397006 0.258262 0)
(-0.401238 0.217605 0)
(-0.405352 0.176822 0)
(-0.409319 0.135862 0)
(-0.413163 0.0947242 0)
(-0.416915 0.0534195 0)
(-0.420597 0.0119522 0)
(-0.424284 -0.0296769 0)
(-0.428026 -0.0714667 0)
(-0.431805 -0.113432 0)
(-0.435601 -0.155568 0)
(-0.439369 -0.197848 0)
(-0.44303 -0.24021 0)
(-0.446467 -0.282544 0)
(-0.449555 -0.324697 0)
(-0.452239 -0.366522 0)
(-0.454688 -0.408039 0)
(-0.457541 -0.449747 0)
(-0.462139 -0.493036 0)
(-0.470453 -0.540404 0)
(-0.484218 -0.594795 0)
(-0.502918 -0.657237 0)
(-0.521176 -0.722791 0)
(-0.527487 -0.776818 0)
(-0.506714 -0.7953 0)
(-0.446891 -0.752101 0)
(-0.347737 -0.632564 0)
(-0.225995 -0.448194 0)
(-0.112349 -0.242568 0)
(-0.0364038 -0.076113 0)
(-0.00422435 0.0132304 0)
(0.00146153 0.0281082 0)
(-0.00454433 0.149776 0)
(-0.0403756 0.291429 0)
(-0.0846162 0.386063 0)
(-0.131526 0.473181 0)
(-0.177977 0.552712 0)
(-0.221263 0.616721 0)
(-0.258712 0.659035 0)
(-0.288487 0.677084 0)
(-0.309933 0.671998 0)
(-0.323668 0.64788 0)
(-0.331362 0.610526 0)
(-0.335236 0.565925 0)
(-0.337435 0.518941 0)
(-0.339525 0.472606 0)
(-0.342298 0.42814 0)
(-0.345893 0.385509 0)
(-0.350073 0.344108 0)
(-0.354503 0.303287 0)
(-0.358917 0.262593 0)
(-0.363174 0.221803 0)
(-0.367242 0.180852 0)
(-0.371156 0.13975 0)
(-0.374976 0.0985207 0)
(-0.378746 0.0571792 0)
(-0.382489 0.01572 0)
(-0.386276 -0.0258694 0)
(-0.390164 -0.0676 0)
(-0.394143 -0.109505 0)
(-0.3982 -0.151601 0)
(-0.402313 -0.193894 0)
(-0.406424 -0.236367 0)
(-0.410433 -0.27896 0)
(-0.414184 -0.321543 0)
(-0.417487 -0.363911 0)
(-0.420194 -0.405841 0)
(-0.422399 -0.447284 0)
(-0.424769 -0.488803 0)
(-0.428874 -0.532168 0)
(-0.43712 -0.58068 0)
(-0.451571 -0.638113 0)
(-0.471201 -0.705118 0)
(-0.488617 -0.773502 0)
(-0.489294 -0.822058 0)
(-0.456338 -0.819443 0)
(-0.380134 -0.73703 0)
(-0.268 -0.568478 0)
(-0.146953 -0.346021 0)
(-0.0534054 -0.137554 0)
(-0.0082233 -0.0088126 0)
(0.00147494 0.0261907 0)
(-0.0033168 0.171141 0)
(-0.0359895 0.33022 0)
(-0.0770478 0.429963 0)
(-0.120033 0.517687 0)
(-0.161772 0.595027 0)
(-0.199783 0.654289 0)
(-0.231811 0.689865 0)
(-0.256518 0.70019 0)
(-0.273721 0.687592 0)
(-0.284405 0.657255 0)
(-0.290395 0.615657 0)
(-0.2938 0.568891 0)
(-0.29642 0.5214 0)
(-0.299368 0.475512 0)
(-0.303032 0.431777 0)
(-0.3073 0.389725 0)
(-0.311857 0.348593 0)
(-0.316412 0.307769 0)
(-0.320795 0.266916 0)
(-0.324958 0.225925 0)
(-0.328933 0.184803 0)
(-0.332789 0.143588 0)
(-0.336596 0.102311 0)
(-0.340398 0.0609739 0)
(-0.344208 0.0195598 0)
(-0.348081 -0.0219567 0)
(-0.352084 -0.0635943 0)
(-0.35621 -0.105398 0)
(-0.360445 -0.147397 0)
(-0.364784 -0.18962 0)
(-0.369197 -0.232084 0)
(-0.373624 -0.27478 0)
(-0.377948 -0.317646 0)
(-0.381982 -0.360533 0)
(-0.385475 -0.403177 0)
(-0.388203 -0.445264 0)
(-0.390214 -0.486693 0)
(-0.392262 -0.528192 0)
(-0.396257 -0.572165 0)
(-0.405114 -0.623017 0)
(-0.420992 -0.685268 0)
(-0.441501 -0.757922 0)
(-0.455963 -0.826728 0)
(-0.446356 -0.860874 0)
(-0.395726 -0.821525 0)
(-0.300798 -0.683226 0)
(-0.180789 -0.459534 0)
(-0.0736138 -0.215127 0)
(-0.0135241 -0.0398827 0)
(0.00139054 0.0222558 0)
(-0.00180416 0.189239 0)
(-0.0301682 0.365299 0)
(-0.0671428 0.469863 0)
(-0.105553 0.557585 0)
(-0.142252 0.632232 0)
(-0.175031 0.686605 0)
(-0.202062 0.715747 0)
(-0.222439 0.719095 0)
(-0.236334 0.700074 0)
(-0.244926 0.664771 0)
(-0.250016 0.620108 0)
(-0.253462 0.572067 0)
(-0.256667 0.524549 0)
(-0.260345 0.479201 0)
(-0.264602 0.43603 0)
(-0.269207 0.39429 0)
(-0.273861 0.353188 0)
(-0.278356 0.312205 0)
(-0.282616 0.271131 0)
(-0.286662 0.229941 0)
(-0.290558 0.188683 0)
(-0.294382 0.147403 0)
(-0.298202 0.106118 0)
(-0.302054 0.0648204 0)
(-0.305939 0.0234774 0)
(-0.309898 -0.0179462 0)
(-0.314007 -0.0594729 0)
(-0.318262 -0.101157 0)
(-0.32264 -0.143035 0)
(-0.327143 -0.185146 0)
(-0.331759 -0.227526 0)
(-0.336458 -0.270203 0)
(-0.341172 -0.313176 0)
(-0.345773 -0.356379 0)
(-0.350041 -0.399629 0)
(-0.353669 -0.442586 0)
(-0.356368 -0.484834 0)
(-0.358189 -0.52627 0)
(-0.360093 -0.567991 0)
(-0.364501 -0.613444 0)
(-0.374861 -0.668509 0)
(-0.392862 -0.737865 0)
(-0.413317 -0.816192 0)
(-0.420866 -0.878811 0)
(-0.39463 -0.8826 0)
(-0.321499 -0.784931 0)
(-0.210288 -0.576044 0)
(-0.0954297 -0.306794 0)
(-0.0203514 -0.081657 0)
(0.00125069 0.0158194 0)
(-0.000110568 0.203293 0)
(-0.0232181 0.395741 0)
(-0.0553992 0.505091 0)
(-0.0887867 0.592494 0)
(-0.120301 0.664281 0)
(-0.148026 0.713966 0)
(-0.170535 0.73728 0)
(-0.187272 0.734592 0)
(-0.198633 0.710288 0)
(-0.205839 0.671158 0)
(-0.210526 0.624364 0)
(-0.214227 0.575633 0)
(-0.217966 0.528299 0)
(-0.222146 0.483417 0)
(-0.226709 0.440595 0)
(-0.231398 0.398946 0)
(-0.235977 0.357718 0)
(-0.240327 0.316512 0)
(-0.244442 0.275217 0)
(-0.248381 0.233866 0)
(-0.25222 0.19252 0)
(-0.256031 0.151217 0)
(-0.259874 0.109961 0)
(-0.263781 0.0687289 0)
(-0.267742 0.027478 0)
(-0.271785 -0.0138359 0)
(-0.275996 -0.055237 0)
(-0.280381 -0.0967896 0)
(-0.2849 -0.138533 0)
(-0.289557 -0.180514 0)
(-0.294345 -0.222777 0)
(-0.299249 -0.265369 0)
(-0.304234 -0.308327 0)
(-0.309226 -0.351655 0)
(-0.314078 -0.395272 0)
(-0.318533 -0.438939 0)
(-0.322225 -0.482212 0)
(-0.324823 -0.524568 0)
(-0.326467 -0.566024 0)
(-0.328514 -0.608434 0)
(-0.334108 -0.656935 0)
(-0.347062 -0.719067 0)
(-0.367379 -0.79776 0)
(-0.384994 -0.878355 0)
(-0.379106 -0.920255 0)
(-0.329165 -0.868483 0)
(-0.232694 -0.688537 0)
(-0.116696 -0.40856 0)
(-0.0287054 -0.135285 0)
(0.00111779 0.00636996 0)
(0.00165427 0.212744 0)
(-0.0154557 0.420814 0)
(-0.0422991 0.535153 0)
(-0.0703772 0.622208 0)
(-0.0966921 0.691251 0)
(-0.119604 0.73672 0)
(-0.138048 0.755023 0)
(-0.15173 0.747346 0)
(-0.161149 0.718864 0)
(-0.167441 0.676884 0)
(-0.171986 0.628653 0)
(-0.17597 0.579577 0)
(-0.18009 0.532467 0)
(-0.184536 0.487906 0)
(-0.189172 0.445237 0)
(-0.193776 0.403526 0)
(-0.198187 0.362099 0)
(-0.20236 0.320663 0)
(-0.206331 0.279181 0)
(-0.210175 0.237716 0)
(-0.213966 0.196327 0)
(-0.217764 0.155038 0)
(-0.221624 0.113838 0)
(-0.225575 0.0726947 0)
(-0.229604 0.0315572 0)
(-0.233719 -0.00962737 0)
(-0.238029 -0.0508832 0)
(-0.24255 -0.0922873 0)
(-0.247221 -0.133883 0)
(-0.252046 -0.17572 0)
(-0.257017 -0.21785 0)
(-0.262123 -0.260325 0)
(-0.267344 -0.303203 0)
(-0.272639 -0.346532 0)
(-0.277921 -0.390312 0)
(-0.283015 -0.434427 0)
(-0.287614 -0.478545 0)
(-0.291293 -0.522074 0)
(-0.293723 -0.564426 0)
(-0.295283 -0.606015 0)
(-0.29801 -0.65016 0)
(-0.305945 -0.7045 0)
(-0.322547 -0.777527 0)
(-0.343852 -0.865746 0)
(-0.352709 -0.937221 0)
(-0.324604 -0.931492 0)
(-0.246492 -0.791143 0)
(-0.13536 -0.515377 0)
(-0.0381961 -0.20054 0)
(0.000969408 -0.0065622 0)
(0.0033844 0.217281 0)
(-0.00719003 0.439931 0)
(-0.0282912 0.559706 0)
(-0.0508878 0.646639 0)
(-0.072064 0.713287 0)
(-0.0904145 0.755213 0)
(-0.105189 0.769453 0)
(-0.116273 0.757864 0)
(-0.124167 0.726231 0)
(-0.129827 0.682211 0)
(-0.13433 0.633036 0)
(-0.138525 0.583791 0)
(-0.142848 0.536852 0)
(-0.147354 0.492457 0)
(-0.151897 0.449794 0)
(-0.15631 0.407933 0)
(-0.160505 0.366289 0)
(-0.164486 0.32465 0)
(-0.168313 0.283027 0)
(-0.172061 0.241494 0)
(-0.175795 0.2001 0)
(-0.179566 0.158854 0)
(-0.183423 0.117733 0)
(-0.187401 0.0767018 0)
(-0.191483 0.0357025 0)
(-0.195655 -0.00532575 0)
(-0.200054 -0.0464102 0)
(-0.204717 -0.0876402 0)
(-0.209554 -0.129067 0)
(-0.214568 -0.170742 0)
(-0.21975 -0.21272 0)
(-0.225085 -0.255059 0)
(-0.23056 -0.297823 0)
(-0.236149 -0.341084 0)
(-0.241798 -0.384894 0)
(-0.247399 -0.429235 0)
(-0.252734 -0.473919 0)
(-0.257433 -0.518463 0)
(-0.261023 -0.5621 0)
(-0.263269 -0.60432 0)
(-0.265047 -0.646538 0)
(-0.269445 -0.694691 0)
(-0.281247 -0.75946 0)
(-0.301649 -0.846945 0)
(-0.319399 -0.937894 0)
(-0.309849 -0.974033 0)
(-0.25143 -0.879745 0)
(-0.149938 -0.622109 0)
(-0.0480923 -0.275657 0)
(0.000665069 -0.0234222 0)
(0.00493831 0.216716 0)
(0.00127381 0.452752 0)
(-0.013775 0.578492 0)
(-0.0307997 0.665772 0)
(-0.0469302 0.730555 0)
(-0.0609453 0.769744 0)
(-0.0723592 0.78094 0)
(-0.0811713 0.766506 0)
(-0.0878048 0.732655 0)
(-0.0929763 0.687257 0)
(-0.0974371 0.63748 0)
(-0.101731 0.588136 0)
(-0.106091 0.541275 0)
(-0.1105 0.496911 0)
(-0.114834 0.454154 0)
(-0.11899 0.41211 0)
(-0.122938 0.370264 0)
(-0.126714 0.328464 0)
(-0.130386 0.286748 0)
(-0.134023 0.245187 0)
(-0.13768 0.20382 0)
(-0.141402 0.162643 0)
(-0.145233 0.121626 0)
(-0.149215 0.0807295 0)
(-0.153334 0.0398989 0)
(-0.157545 -0.000935531 0)
(-0.162019 -0.0418184 0)
(-0.166825 -0.0828387 0)
(-0.17184 -0.124065 0)
(-0.177063 -0.165552 0)
(-0.182483 -0.207355 0)
(-0.188084 -0.249533 0)
(-0.193852 -0.292156 0)
(-0.199767 -0.335306 0)
(-0.205793 -0.379066 0)
(-0.211858 -0.423486 0)
(-0.217817 -0.468495 0)
(-0.223394 -0.513768 0)
(-0.228147 -0.558607 0)
(-0.231596 -0.602099 0)
(-0.233789 -0.644232 0)
(-0.236511 -0.688609 0)
(-0.244202 -0.745285 0)
(-0.261243 -0.82663 0)
(-0.282823 -0.927232 0)
(-0.287552 -0.998037 0)
(-0.248281 -0.952093 0)
(-0.159694 -0.724258 0)
(-0.0575601 -0.357875 0)
(-4.93751e-06 -0.0446359 0)
(0.00616102 0.211278 0)
(0.0095727 0.458833 0)
(0.000924739 0.591419 0)
(-0.0105133 0.679618 0)
(-0.0216974 0.743207 0)
(-0.0315526 0.780543 0)
(-0.0398202 0.789742 0)
(-0.0465618 0.773497 0)
(-0.0520746 0.738275 0)
(-0.0568029 0.692049 0)
(-0.0611717 0.641912 0)
(-0.0654503 0.592478 0)
(-0.0697144 0.545596 0)
(-0.0739109 0.501156 0)
(-0.0779568 0.458247 0)
(-0.0818095 0.416017 0)
(-0.0854839 0.374003 0)
(-0.0890345 0.33209 0)
(-0.0925285 0.290324 0)
(-0.0960277 0.248773 0)
(-0.0995816 0.207463 0)
(-0.103228 0.166382 0)