/*--------------------------------*- C++ -*----------------------------------*\
  =========                 |
  \\      /  F ield         | OpenFOAM: The Open Source CFD Toolbox
   \\    /   O peration     | Website:  https://openfoam.org
    \\  /    A nd           | Version:  7
     \\/     M anipulation  |
\*---------------------------------------------------------------------------*/
FoamFile
{
    version     2.0;
    format      ascii;
    class       volScalarField;
    location    "650";
    object      p;
}
// * * * * * * * * * * * * * * * * * * * * * * * * * * * * * * * * * * * * * //

dimensions      [0 2 -2 0 0 0 0];

internalField   nonuniform List<scalar> 
2500
(
1.07305e-06
7.30841e-05
-6.69379e-06
-0.000305586
-0.000780108
-0.00136781
-0.00202851
-0.0027577
-0.00358111
-0.00453941
-0.00567267
-0.00701079
-0.00857067
-0.010352
-0.0123314
-0.0144546
-0.0166293
-0.0187239
-0.0205732
-0.021995
-0.0228143
-0.0228916
-0.0221513
-0.0206096
-0.0183923
-0.0157256
-0.0129309
-0.0104256
-0.00867191
-0.00810801
-0.00906751
-0.0116882
-0.0158583
-0.0212826
-0.0275021
-0.0339552
-0.0401128
-0.0455735
-0.0501058
-0.0536343
-0.0562086
-0.0579634
-0.0590732
-0.0597138
-0.0600372
-0.0601597
-0.060159
-0.0600778
-0.0599386
-0.0597994
-6.70079e-05
5.96297e-06
-7.78447e-05
-0.000374389
-0.000826897
-0.0013712
-0.00197218
-0.0026313
-0.00337718
-0.00425014
-0.00528902
-0.00652376
-0.00797507
-0.00965068
-0.0115389
-0.013603
-0.0157719
-0.017934
-0.0199364
-0.021595
-0.0227174
-0.0231334
-0.022729
-0.0214798
-0.0194805
-0.0169481
-0.0142196
-0.0117305
-0.00996184
-0.00937104
-0.0103074
-0.0129308
-0.0171581
-0.0226405
-0.0288758
-0.0353159
-0.0414062
-0.0467055
-0.0509737
-0.0541835
-0.0564521
-0.0579611
-0.0589039
-0.0594532
-0.0597452
-0.0598772
-0.0599113
-0.0598768
-0.0597754
-0.0596437
-1.67098e-05
5.1966e-05
-5.50198e-05
-0.000377592
-0.000830108
-0.00133681
-0.00186752
-0.0024351
-0.0030806
-0.00385161
-0.00479224
-0.00594287
-0.00734158
-0.00902282
-0.0110066
-0.0132817
-0.0157877
-0.0184029
-0.0209446
-0.0231862
-0.0248882
-0.0258363
-0.025879
-0.0249649
-0.0231861
-0.0207697
-0.0180528
-0.0154691
-0.0135116
-0.012661
-0.0132999
-0.0156273
-0.0195993
-0.0249147
-0.0310651
-0.0374293
-0.043429
-0.0486214
-0.0527256
-0.0556753
-0.0576002
-0.0587457
-0.0593652
-0.0596636
-0.0597855
-0.0598206
-0.0598155
-0.05978
-0.0596842
-0.0595399
0.000230739
0.00026872
0.000104161
-0.000277256
-0.000753142
-0.00123455
-0.00170055
-0.00218329
-0.00274387
-0.00345336
-0.0043852
-0.00561894
-0.00723948
-0.00932385
-0.0119149
-0.0149924
-0.0184531
-0.0221084
-0.0257021
-0.0289435
-0.0315478
-0.0332755
-0.0339617
-0.0335425
-0.0320896
-0.0298057
-0.0270029
-0.0241024
-0.0215993
-0.0200006
-0.0197444
-0.0211114
-0.0241512
-0.0286518
-0.0341631
-0.0400823
-0.0457868
-0.0507568
-0.0546964
-0.0575154
-0.0592643
-0.0601545
-0.0604671
-0.060462
-0.0603239
-0.0601625
-0.0600284
-0.0599226
-0.0597926
-0.0596277
0.000710332
0.000680082
0.000420751
-4.1528e-05
-0.000552799
-0.00102677
-0.00145796
-0.00190642
-0.0024729
-0.00327945
-0.00446318
-0.00617204
-0.00854532
-0.0116785
-0.0155858
-0.0201761
-0.0252528
-0.0305346
-0.0356909
-0.0403805
-0.0442889
-0.0471587
-0.0488116
-0.0491629
-0.0482423
-0.0461952
-0.0432866
-0.0399015
-0.0365122
-0.0336339
-0.0317595
-0.0312777
-0.0323913
-0.0350576
-0.0389773
-0.0436455
-0.048462
-0.0528656
-0.0564558
-0.0590445
-0.0606648
-0.0614728
-0.0616596
-0.0614752
-0.0611389
-0.0607939
-0.0605141
-0.0603126
-0.0601363
-0.0599594
0.00146583
0.00133163
0.000952104
0.000400405
-0.000165826
-0.000672451
-0.00114423
-0.00169409
-0.0024914
-0.00374245
-0.00567299
-0.00849708
-0.0123703
-0.0173434
-0.023336
-0.0301399
-0.0374453
-0.0448806
-0.0520522
-0.0585804
-0.0641281
-0.0684247
-0.0712825
-0.0726029
-0.0723838
-0.0707096
-0.067778
-0.0639095
-0.059512
-0.0550609
-0.0510592
-0.0479786
-0.0461855
-0.0458671
-0.0469778
-0.0492349
-0.0521757
-0.0552706
-0.0580519
-0.0602092
-0.0616217
-0.0623375
-0.0625204
-0.0623332
-0.0619473
-0.061522
-0.0611564
-0.0608881
-0.0606828
-0.0605114
0.00253566
0.00227267
0.00176376
0.00111217
0.000455135
-0.00016434
-0.000834517
-0.0017512
-0.00318399
-0.0054431
-0.00883042
-0.013575
-0.0197733
-0.0273581
-0.0361041
-0.0456627
-0.0556094
-0.065491
-0.0748656
-0.0833336
-0.0905603
-0.0962901
-0.100351
-0.102652
-0.103188
-0.10201
-0.0992442
-0.0951244
-0.0899529
-0.0841029
-0.0780061
-0.0721288
-0.0669291
-0.0627968
-0.0599845
-0.05855
-0.058335
-0.0590011
-0.0601207
-0.0612917
-0.0622253
-0.0627821
-0.0629604
-0.062848
-0.0625489
-0.0621744
-0.061824
-0.0615554
-0.0613598
-0.0612147
0.0039261
0.003527
0.00288788
0.00211411
0.00129866
0.000413622
-0.000726456
-0.0024309
-0.00508486
-0.0090823
-0.0147385
-0.022209
-0.0314463
-0.0422053
-0.0540865
-0.0665962
-0.0792076
-0.0914111
-0.102752
-0.112853
-0.121429
-0.12828
-0.133281
-0.136372
-0.13757
-0.136936
-0.134541
-0.130532
-0.12509
-0.118447
-0.11089
-0.10277
-0.0944982
-0.0865323
-0.0793327
-0.0733001
-0.068699
-0.0655935
-0.0638264
-0.0630655
-0.0629063
-0.0629879
-0.0630653
-0.0630315
-0.0628827
-0.0626601
-0.0624266
-0.0622359
-0.0620959
-0.0619953
0.00558225
0.00505398
0.00427967
0.00334117
0.00224266
0.000845722
-0.001162
-0.00421655
-0.00879516
-0.0153057
-0.0239772
-0.0347943
-0.0474949
-0.0616206
-0.0765938
-0.0917977
-0.106645
-0.120624
-0.133327
-0.144455
-0.153815
-0.161294
-0.166836
-0.170421
-0.172094
-0.171953
-0.170042
-0.166439
-0.161229
-0.154514
-0.146418
-0.137114
-0.126847
-0.115963
-0.104928
-0.0943115
-0.0847338
-0.0767538
-0.0707333
-0.0667233
-0.0644458
-0.0634032
-0.0630618
-0.0630068
-0.0630077
-0.0629885
-0.0629441
-0.0628975
-0.0628526
-0.0628076
0.00735348
0.00671024
0.00578958
0.00460435
0.0030255
0.000773957
-0.00260242
-0.00764434
-0.0148509
-0.0245384
-0.0367421
-0.0511952
-0.0673813
-0.0846293
-0.102218
-0.11947
-0.135809
-0.150798
-0.164137
-0.175645
-0.185237
-0.192891
-0.198617
-0.20243
-0.204395
-0.204636
-0.203189
-0.200097
-0.195392
-0.189092
-0.181208
-0.171753
-0.160776
-0.148408
-0.134921
-0.120794
-0.106735
-0.0936359
-0.082419
-0.0737915
-0.0680038
-0.0647558
-0.0633465
-0.0629848
-0.0630601
-0.0632417
-0.063422
-0.0635601
-0.0636353
-0.06365
0.00898163
0.00824242
0.00713987
0.00557486
0.00325001
-0.000267812
-0.00555384
-0.0131898
-0.0235926
-0.0368739
-0.052787
-0.0707706
-0.0900591
-0.109817
-0.129258
-0.147734
-0.16477
-0.180062
-0.193451
-0.204878
-0.214352
-0.221919
-0.227628
-0.231518
-0.233653
-0.23416
-0.233073
-0.230422
-0.226224
-0.220472
-0.213128
-0.204123
-0.19337
-0.180802
-0.166436
-0.150468
-0.133393
-0.116076
-0.0997277
-0.0856839
-0.0750162
-0.0681191
-0.0645494
-0.0632803
-0.0632076
-0.0635507
-0.0639494
-0.0642852
-0.0644903
-0.0645652
0.0101132
0.0092828
0.00793121
0.00580916
0.00243178
-0.0027772
-0.0104652
-0.0211603
-0.0350845
-0.0520517
-0.0714858
-0.092538
-0.11425
-0.135713
-0.156182
-0.175129
-0.19224
-0.20737
-0.220492
-0.231643
-0.240888
-0.248304
-0.253953
-0.257878
-0.260129
-0.260819
-0.259972
-0.25762
-0.253782
-0.248459
-0.241615
-0.233173
-0.223005
-0.210947
-0.196828
-0.180558
-0.162259
-0.142444
-0.122164
-0.102996
-0.0867351
-0.0747976
-0.067601
-0.0643828
-0.0636661
-0.064032
-0.0646274
-0.0651553
-0.0654924
-0.0656306
0.0103193
0.00938357
0.00769181
0.00481396
8.21646e-05
-0.00718598
-0.0176326
-0.0316275
-0.0491027
-0.0695213
-0.0919815
-0.115405
-0.13874
-0.161115
-0.181921
-0.20081
-0.217643
-0.232419
-0.245203
-0.256083
-0.265146
-0.272467
-0.278101
-0.28208
-0.284437
-0.285264
-0.284571
-0.282391
-0.278751
-0.273663
-0.267117
-0.259067
-0.249413
-0.23799
-0.224572
-0.208903
-0.190791
-0.170287
-0.147944
-0.125044
-0.103601
-0.0859077
-0.0736411
-0.0670273
-0.0647505
-0.0647948
-0.0655391
-0.066251
-0.0667284
-0.0669418
0.00915558
0.00808914
0.00595555
0.00213483
-0.00419726
-0.013772
-0.0271381
-0.0444154
-0.0651872
-0.0885607
-0.113362
-0.13838
-0.162582
-0.185231
-0.205912
-0.224468
-0.240911
-0.255334
-0.267852
-0.278562
-0.287544
-0.294854
-0.300533
-0.304597
-0.307062
-0.308003
-0.307419
-0.30534
-0.301791
-0.296795
-0.290361
-0.282478
-0.273097
-0.26211
-0.249333
-0.234493
-0.217254
-0.197331
-0.174714
-0.150032
-0.124889
-0.10184
-0.0836816
-0.072164
-0.0669791
-0.0660045
-0.0667352
-0.0676394
-0.0682814
-0.0685952
0.00624605
0.00501648
0.00234893
-0.0025561
-0.0106361
-0.0226046
-0.0388362
-0.0591384
-0.0827305
-0.108406
-0.134806
-0.160698
-0.185164
-0.207664
-0.227984
-0.24613
-0.262216
-0.27638
-0.288742
-0.299388
-0.308372
-0.315732
-0.321491
-0.325653
-0.328222
-0.329263
-0.328771
-0.326766
-0.32327
-0.318304
-0.311886
-0.304024
-0.294711
-0.283903
-0.271498
-0.257298
-0.240989
-0.22216
-0.200427
-0.175743
-0.148896
-0.121959
-0.0981566
-0.080718
-0.0710918
-0.0679719
-0.0682883
-0.0693815
-0.0702241
-0.0706806
0.00135221
-7.10721e-05
-0.00333609
-0.00939673
-0.0192516
-0.0335334
-0.0523825
-0.0752696
-0.101076
-0.128354
-0.155665
-0.181849
-0.206169
-0.228293
-0.248183
-0.265956
-0.281774
-0.295782
-0.30808
-0.318727
-0.327755
-0.335183
-0.341025
-0.345277
-0.347938
-0.349065
-0.348656
-0.346721
-0.343278
-0.338341
-0.331925
-0.324043
-0.314706
-0.303913
-0.291632
-0.27777
-0.26212
-0.244325
-0.223882
-0.200309
-0.173567
-0.144753
-0.116636
-0.0932255
-0.077915
-0.071221
-0.0703632
-0.0715428
-0.0726334
-0.0732889
-0.00557823
-0.00721627
-0.0111017
-0.0183097
-0.0298472
-0.046216
-0.0672919
-0.0922187
-0.119597
-0.147828
-0.175483
-0.201548
-0.225486
-0.247151
-0.266633
-0.284109
-0.299749
-0.313675
-0.325957
-0.336628
-0.345702
-0.353188
-0.359093
-0.363415
-0.366148
-0.367346
-0.367011
-0.365148
-0.361768
-0.35688
-0.350493
-0.342616
-0.333259
-0.322436
-0.310157
-0.296405
-0.281098
-0.264014
-0.244734
-0.222642
-0.197158
-0.168353
-0.137891
-0.109542
-0.0880816
-0.076427
-0.0732782
-0.0742257
-0.075623
-0.0765262
-0.0143971
-0.0162567
-0.0207423
-0.0290158
-0.0420459
-0.0601728
-0.0830054
-0.1094
-0.137748
-0.166388
-0.193973
-0.219662
-0.243111
-0.264319
-0.283453
-0.300705
-0.316227
-0.330107
-0.342385
-0.353075
-0.362177
-0.369696
-0.375642
-0.380011
-0.382797
-0.38405
-0.38378
-0.381984
-0.378672
-0.37385
-0.367522
-0.359691
-0.350361
-0.339543
-0.327256
-0.313523
-0.298347
-0.281648
-0.263178
-0.242419
-0.218608
-0.191097
-0.16028
-0.128806
-0.10175
-0.0842332
-0.0774923
-0.0775907
-0.0793167
-0.0805045
-0.0247761
-0.0268484
-0.0318764
-0.0410778
-0.0553457
-0.0748493
-0.0989523
-0.126279
-0.155088
-0.183723
-0.210964
-0.236146
-0.259084
-0.279875
-0.298721
-0.315803
-0.331237
-0.345079
-0.357344
-0.368032
-0.377139
-0.38467
-0.390634
-0.395032
-0.397857
-0.399151
-0.398935
-0.397199
-0.393954
-0.389204
-0.382951
-0.375195
-0.365937
-0.355179
-0.342935
-0.329233
-0.314113
-0.297594
-0.279595
-0.259802
-0.23755
-0.211891
-0.182219
-0.14967
-0.118472
-0.0950158
-0.0835106
-0.0818679
-0.0838197
-0.0853365
-0.0362538
-0.0385151
-0.044001
-0.0539596
-0.0691822
-0.0896756
-0.114596
-0.142398
-0.171273
-0.199622
-0.226362
-0.250991
-0.273441
-0.293868
-0.312474
-0.329415
-0.34477
-0.358566
-0.370801
-0.381468
-0.390562
-0.398088
-0.404056
-0.408471
-0.411324
-0.412648
-0.412476
-0.410792
-0.407607
-0.402925
-0.39675
-0.389083
-0.379922
-0.369266
-0.357121
-0.343505
-0.328462
-0.312052
-0.294311
-0.275128
-0.254073
-0.230254
-0.202538
-0.170673
-0.137282
-0.108718
-0.0917605
-0.0873501
-0.0892228
-0.0911416
-0.0482946
-0.0507084
-0.0565528
-0.0670874
-0.0829853
-0.104112
-0.129464
-0.157382
-0.186046
-0.213938
-0.240113
-0.264196
-0.286202
-0.306312
-0.324714
-0.341527
-0.356801
-0.370539
-0.38273
-0.393362
-0.402431
-0.409942
-0.415906
-0.42033
-0.423203
-0.424549
-0.424413
-0.422772
-0.419638
-0.415017
-0.408915
-0.401335
-0.392278
-0.381744
-0.369733
-0.356256
-0.341344
-0.325062
-0.307497
-0.288687
-0.268453
-0.246155
-0.220588
-0.190575
-0.156939
-0.124814
-0.102439
-0.0943167
-0.095618
-0.0980315
-0.0603487
-0.0628681
-0.0689672
-0.0799034
-0.0962231
-0.117681
-0.143157
-0.170936
-0.199215
-0.22657
-0.252175
-0.275751
-0.297364
-0.317199
-0.335419
-0.352112
-0.3673
-0.380971
-0.393109
-0.403699
-0.412738
-0.42023
-0.426186
-0.430614
-0.433503
-0.434864
-0.434757
-0.433151
-0.430059
-0.425489
-0.41945
-0.411948
-0.40299
-0.392577
-0.380713
-0.367405
-0.352673
-0.336569
-0.319187
-0.300643
-0.280953
-0.259785
-0.236161
-0.208528
-0.176207
-0.142404
-0.1154
-0.102959
-0.103114
-0.106063
-0.0719023
-0.0744762
-0.0807249
-0.0919058
-0.108432
-0.129978
-0.155357
-0.182829
-0.210636
-0.237441
-0.26251
-0.285636
-0.306908
-0.326503
-0.344559
-0.361136
-0.376236
-0.389839
-0.40192
-0.412468
-0.421478
-0.428952
-0.4349
-0.43933
-0.442231
-0.443602
-0.443518
-0.441939
-0.43888
-0.434351
-0.428363
-0.420926
-0.412051
-0.401749
-0.390026
-0.376892
-0.362363
-0.346478
-0.32932
-0.311027
-0.291731
-0.271367
-0.24931
-0.224084
-0.194068
-0.160398
-0.130128
-0.113289
-0.111765
-0.115176
-0.0825371
-0.0850714
-0.0913861
-0.102673
-0.119231
-0.140685
-0.165815
-0.19289
-0.220202
-0.246487
-0.271082
-0.29382
-0.314802
-0.33419
-0.352099
-0.368567
-0.383584
-0.397121
-0.409152
-0.419663
-0.428649
-0.436109
-0.44205
-0.446481
-0.449391
-0.450768
-0.450702
-0.449143
-0.446107
-0.441607
-0.435656
-0.428268
-0.41946
-0.409248
-0.397647
-0.384674
-0.370346
-0.354699
-0.337799
-0.319779
-0.300823
-0.281049
-0.260185
-0.237093
-0.209806
-0.177712
-0.145816
-0.125066
-0.121476
-0.12513
-0.0919361
-0.0942772
-0.100591
-0.111878
-0.128328
-0.149559
-0.174348
-0.200991
-0.227829
-0.253654
-0.277849
-0.300267
-0.321008
-0.340222
-0.358002
-0.374374
-0.389317
-0.402798
-0.414789
-0.425274
-0.434245
-0.441698
-0.447638
-0.452071
-0.45499
-0.456374
-0.456319
-0.454772
-0.45175
-0.447265
-0.441335
-0.433976
-0.425212
-0.415065
-0.40356
-0.39072
-0.376573
-0.361153
-0.344523
-0.326799
-0.308177
-0.288878
-0.268912
-0.247568
-0.222997
-0.193412
-0.161494
-0.137761
-0.131904
-0.135504
-0.0998513
-0.101864
-0.10807
-0.119279
-0.135519
-0.156432
-0.180828
-0.207043
-0.233458
-0.2589
-0.282774
-0.30494
-0.32549
-0.344561
-0.362236
-0.378528
-0.393414
-0.406855
-0.418821
-0.429294
-0.438262
-0.44572
-0.451667
-0.456107
-0.459034
-0.46043
-0.460379
-0.458841
-0.455821
-0.451337
-0.445408
-0.438056
-0.429308
-0.419194
-0.40775
-0.395007
-0.381003
-0.36578
-0.349401
-0.331974
-0.313689
-0.294813
-0.275543
-0.25557
-0.233436
-0.206794
-0.176183
-0.150625
-0.142506
-0.14576
-0.106117
-0.107713
-0.113667
-0.124724
-0.140687
-0.161222
-0.1852
-0.211005
-0.237054
-0.262193
-0.285826
-0.307805
-0.328211
-0.347172
-0.364766
-0.381001
-0.39585
-0.409271
-0.421234
-0.431713
-0.440696
-0.448172
-0.454137
-0.458591
-0.461531
-0.462938
-0.46289
-0.461356
-0.458328
-0.453832
-0.447885
-0.440515
-0.431752
-0.421636
-0.410209
-0.397518
-0.383607
-0.368532
-0.35236
-0.335202
-0.31724
-0.298755
-0.280054
-0.261143
-0.241049
-0.217385
-0.189013
-0.162816
-0.152647
-0.155327
-0.110665
-0.111788
-0.117344
-0.128154
-0.143779
-0.163884
-0.187419
-0.212832
-0.238573
-0.263491
-0.286969
-0.308836
-0.329157
-0.348051
-0.365593
-0.381796
-0.396631
-0.410057
-0.422037
-0.432544
-0.441559
-0.449067
-0.455059
-0.459531
-0.462479
-0.46389
-0.463838
-0.462309
-0.459265
-0.454741
-0.448758
-0.441344
-0.432536
-0.42238
-0.410929
-0.398237
-0.384362
-0.369371
-0.353344
-0.336397
-0.318716
-0.300583
-0.282363
-0.26428
-0.245819
-0.224905
-0.199296
-0.173516
-0.161698
-0.163665
-0.113525
-0.114144
-0.119164
-0.129616
-0.144838
-0.164458
-0.187513
-0.212528
-0.237992
-0.262743
-0.286133
-0.307953
-0.328243
-0.347113
-0.364643
-0.380848
-0.395704
-0.409168
-0.4212
-0.431767
-0.440847
-0.448419
-0.45447
-0.458991
-0.461976
-0.463409
-0.463334
-0.461773
-0.45868
-0.45409
-0.44803
-0.440533
-0.431644
-0.421409
-0.409886
-0.397139
-0.383238
-0.368261
-0.352303
-0.335491
-0.318018
-0.300176
-0.282359
-0.264927
-0.247741
-0.229205
-0.20654
-0.182015
-0.169087
-0.170294
-0.114804
-0.11492
-0.119285
-0.129238
-0.143972
-0.163037
-0.185557
-0.210146
-0.235336
-0.259955
-0.283308
-0.305137
-0.325448
-0.344341
-0.361894
-0.378134
-0.393041
-0.406573
-0.418687
-0.429345
-0.438517
-0.446178
-0.452309
-0.456897
-0.459932
-0.461404
-0.461331
-0.459751
-0.456608
-0.451942
-0.445785
-0.43817
-0.429143
-0.41876
-0.40709
-0.39421
-0.380204
-0.365162
-0.349186
-0.332418
-0.315064
-0.297426
-0.279926
-0.263002
-0.246793
-0.230217
-0.210422
-0.187743
-0.174317
-0.174794
-0.114679
-0.114329
-0.117942
-0.127224
-0.141347
-0.159763
-0.181661
-0.20576
-0.230646
-0.255138
-0.278487
-0.300372
-0.320754
-0.339715
-0.357334
-0.373646
-0.38864
-0.402276
-0.414508
-0.425292
-0.434589
-0.44237
-0.448609
-0.453287
-0.45639
-0.457908
-0.457841
-0.456241
-0.453039
-0.448281
-0.442003
-0.43424
-0.425041
-0.414469
-0.402597
-0.389511
-0.375303
-0.360078
-0.343963
-0.327123
-0.309778
-0.292242
-0.274954
-0.25841
-0.24294
-0.227915
-0.210752
-0.190268
-0.176964
-0.176803
-0.113378
-0.112633
-0.115432
-0.123848
-0.137191
-0.154824
-0.175976
-0.199474
-0.223978
-0.248305
-0.271652
-0.293622
-0.314121
-0.333199
-0.350932
-0.367361
-0.382484
-0.396266
-0.408657
-0.419608
-0.429072
-0.437011
-0.443391
-0.448187
-0.451379
-0.452955
-0.452902
-0.451281
-0.448016
-0.44315
-0.436726
-0.42878
-0.419365
-0.408547
-0.396408
-0.383039
-0.368543
-0.353039
-0.336668
-0.319612
-0.302123
-0.28455
-0.267357
-0.251063
-0.236133
-0.22229
-0.207429
-0.189281
-0.176657
-0.175994
-0.111166
-0.110124
-0.112094
-0.119448
-0.131795
-0.148464
-0.168699
-0.191431
-0.215413
-0.239484
-0.262788
-0.284849
-0.305498
-0.324742
-0.342642
-0.359242
-0.374545
-0.388522
-0.401122
-0.412287
-0.421964
-0.430103
-0.436664
-0.441612
-0.444921
-0.446573
-0.446552
-0.444909
-0.44158
-0.436595
-0.430002
-0.421841
-0.412165
-0.401046
-0.388569
-0.374832
-0.359949
-0.344051
-0.327296
-0.30989
-0.292113
-0.274344
-0.257088
-0.240901
-0.226329
-0.213345
-0.200417
-0.184576
-0.173074
-0.172069
-0.108318
-0.107094
-0.108273
-0.114398
-0.1255
-0.140972
-0.160067
-0.181811
-0.205069
-0.228726
-0.251894
-0.274012
-0.294828
-0.314285
-0.332413
-0.349246
-0.364793
-0.379025
-0.39189
-0.403326
-0.413269
-0.42166
-0.428447
-0.433588
-0.437048
-0.438804
-0.438836
-0.437177
-0.433786
-0.428676
-0.421894
-0.413486
-0.403507
-0.392028
-0.379141
-0.364949
-0.349573
-0.333159
-0.315881
-0.297973
-0.279746
-0.261621
-0.244147
-0.227917
-0.213524
-0.201098
-0.189722
-0.176033
-0.165928
-0.164748
-0.105105
-0.103812
-0.104288
-0.10908
-0.118685
-0.132679
-0.150356
-0.170832
-0.193095
-0.21611
-0.238981
-0.261077
-0.282048
-0.301755
-0.320176
-0.33732
-0.353189
-0.367751
-0.380954
-0.392728
-0.403001
-0.411703
-0.418772
-0.424154
-0.427807
-0.4297
-0.429809
-0.428152
-0.424706
-0.419466
-0.41248
-0.403797
-0.393472
-0.381578
-0.368207
-0.353468
-0.337491
-0.320432
-0.302487
-0.283916
-0.26507
-0.246417
-0.228556
-0.21213
-0.197775
-0.185623
-0.175404
-0.163611
-0.154973
-0.153758
-0.10176
-0.100494
-0.1004
-0.103849
-0.111743
-0.123951
-0.139879
-0.158747
-0.179676
-0.201743
-0.224084
-0.246015
-0.267089
-0.287066
-0.305845
-0.323392
-0.33968
-0.35467
-0.368302
-0.3805
-0.391182
-0.400266
-0.407681
-0.413362
-0.417258
-0.419329
-0.419547
-0.417915
-0.414424
-0.409056
-0.401855
-0.392873
-0.382163
-0.369798
-0.355871
-0.340495
-0.323805
-0.305971
-0.287211
-0.267817
-0.248182
-0.228826
-0.210405
-0.193617
-0.179152
-0.167068
-0.157591
-0.14735
-0.14002
-0.13884
-0.0984694
-0.0972992
-0.096798
-0.0989964
-0.105052
-0.115174
-0.128979
-0.145838
-0.165029
-0.185769
-0.207267
-0.228819
-0.249889
-0.270125
-0.289322
-0.30737
-0.324197
-0.339738
-0.353916
-0.366644
-0.377832
-0.387387
-0.395226
-0.401275
-0.405473
-0.407772
-0.408138
-0.406561
-0.403045
-0.397556
-0.390135
-0.380833
-0.369703
-0.356816
-0.342263
-0.326159
-0.308647
-0.289912
-0.270194
-0.249821
-0.229233
-0.209007
-0.189863
-0.172548
-0.157791
-0.145637
-0.136481
-0.127372
-0.120967
-0.119764
-0.0953629
-0.0943287
-0.093589
-0.0947225
-0.0989331
-0.106726
-0.118017
-0.132414
-0.1494
-0.168366
-0.188633
-0.209517
-0.230413
-0.250851
-0.270504
-0.289155
-0.306656
-0.322894
-0.337763
-0.351158
-0.362973
-0.373108
-0.381467
-0.387967
-0.392538
-0.395125
-0.395687
-0.394203
-0.390687
-0.385091
-0.37745
-0.367815
-0.356235
-0.342779
-0.327535
-0.310623
-0.292191
-0.272438
-0.251632
-0.230138
-0.20845
-0.187205
-0.167184
-0.149184
-0.133958
-0.121562
-0.112337
-0.103861
-0.0978019
-0.0962937
-0.0925181
-0.0916382
-0.0908133
-0.091127
-0.0936108
-0.0989337
-0.107346
-0.118797
-0.133059
-0.149748
-0.168335
-0.188194
-0.208678
-0.229209
-0.249319
-0.268658
-0.286973
-0.304074
-0.319805
-0.33403
-0.346624
-0.357471
-0.366466
-0.373517
-0.378546
-0.381493
-0.38231
-0.380968
-0.377481
-0.3718
-0.363948
-0.353973
-0.341923
-0.327861
-0.311877
-0.294089
-0.274655
-0.25379
-0.231792
-0.209065
-0.186157
-0.163769
-0.142738
-0.123901
-0.108028
-0.0951339
-0.0855147
-0.0770422
-0.0705763
-0.0680872
-0.0899675
-0.0892503
-0.0884626
-0.0882147
-0.0891867
-0.0920205
-0.0972614
-0.105295
-0.116289
-0.130162
-0.146581
-0.16501
-0.184789
-0.205244
-0.225763
-0.245846
-0.265101
-0.283233
-0.300013
-0.315255
-0.328801
-0.340518
-0.350288
-0.358009
-0.363599
-0.366989
-0.368132
-0.366991
-0.363571
-0.357836
-0.349793
-0.339483
-0.326956
-0.312271
-0.295516
-0.276812
-0.256327
-0.234294
-0.211038
-0.187007
-0.162801
-0.139179
-0.117024
-0.0972003
-0.0804712
-0.066771
-0.0564421
-0.0471851
-0.0394916
-0.0347434
-0.0877024
-0.0871607
-0.0865004
-0.0859144
-0.0856223
-0.0860538
-0.0879455
-0.0921559
-0.0993645
-0.109888
-0.123646
-0.140224
-0.158972
-0.179137
-0.199968
-0.220801
-0.241089
-0.260403
-0.278413
-0.294862
-0.30955
-0.322311
-0.333011
-0.341539
-0.347805
-0.351739
-0.353288
-0.352417
-0.349119
-0.343374
-0.335172
-0.324552
-0.311563
-0.296264
-0.278742
-0.259123
-0.237585
-0.214379
-0.18986
-0.164512
-0.138982
-0.114068
-0.0906851
-0.0697025
-0.0518559
-0.0370013
-0.0255876
-0.0146171
-0.00518559
0.00379706
-0.0856661
-0.0853301
-0.084867
-0.0840939
-0.0827383
-0.0809038
-0.0793956
-0.0795156
-0.0825242
-0.0892329
-0.0998842
-0.114219
-0.131618
-0.151259
-0.172263
-0.193803
-0.215162
-0.235763
-0.255153
-0.272984
-0.288992
-0.302971
-0.314762
-0.324241
-0.331312
-0.335899
-0.33795
-0.337428
-0.334321
-0.328626
-0.320319
-0.309439
-0.296034
-0.280169
-0.261932
-0.241455
-0.218927
-0.194617
-0.168903
-0.142298
-0.115472
-0.0892387
-0.0645077
-0.0421227
-0.0227723
-0.00627107
0.00681558
0.0205644
0.031501
0.0473457
-0.0837378
-0.0836623
-0.0834544
-0.0825498
-0.0802165
-0.0762304
-0.0713848
-0.067342
-0.0659363
-0.0685299
-0.0757501
-0.0875359
-0.103317
-0.122218
-0.143239
-0.165397
-0.18781
-0.209742
-0.230603
-0.24994
-0.267411
-0.282757
-0.295785
-0.306352
-0.314351
-0.319705
-0.322359
-0.322278
-0.319447
-0.313877
-0.305546
-0.294487
-0.280755
-0.264421
-0.24558
-0.224371
-0.200996
-0.175737
-0.148984
-0.121257
-0.0932171
-0.0656513
-0.0394116
-0.0152623
0.00619661
0.025208
0.0411757
0.0591587
0.0715112
0.0979881
-0.0817235
-0.0819749
-0.082055
-0.0809637
-0.0775967
-0.0715108
-0.063481
-0.0554333
-0.0496883
-0.0481365
-0.0518175
-0.0609047
-0.0749033
-0.0929011
-0.113794
-0.136456
-0.159849
-0.183083
-0.205431
-0.226327
-0.245339
-0.262147
-0.276516
-0.288277
-0.29731
-0.303531
-0.306887
-0.307344
-0.304887
-0.299533
-0.291283
-0.280163
-0.266239
-0.249588
-0.230319
-0.208581
-0.184584
-0.158615
-0.131057
-0.102406
-0.0732696
-0.0443488
-0.0163743
0.0100371
0.0344513
0.057298
0.0781854
0.102958
0.119973
0.163039
-0.0794099
-0.0800165
-0.0803817
-0.0789393
-0.0743392
-0.0661313
-0.0551587
-0.0435088
-0.033839
-0.0284633
-0.0287987
-0.0352658
-0.0474717
-0.064494
-0.085149
-0.108192
-0.132447
-0.156885
-0.180651
-0.203068
-0.223613
-0.2419
-0.257646
-0.270652
-0.28078
-0.287941
-0.292077
-0.29316
-0.29118
-0.286152
-0.278102
-0.267068
-0.253123
-0.236362
-0.216902
-0.1949
-0.170569
-0.144186
-0.116101
-0.0867447
-0.0566197
-0.0262717
0.00376607
0.0331075
0.0615719
0.0899086
0.118123
0.153308
0.183099
0.247811
-0.0769019
-0.077749
-0.0782439
-0.0761957
-0.0701454
-0.0597207
-0.0460613
-0.0314175
-0.0185555
-0.0100333
-0.00755346
-0.0117505
-0.0223451
-0.0384367
-0.0587997
-0.0821055
-0.107072
-0.132555
-0.157589
-0.181395
-0.20337
-0.223061
-0.240136
-0.254365
-0.265589
-0.27371
-0.278669
-0.280442
-0.279027
-0.274444
-0.266728
-0.255931
-0.242147
-0.225493
-0.206095
-0.184109
-0.159737
-0.133224
-0.104862
-0.0749778
-0.0439142
-0.0119862
0.020579
0.0537755
0.0878481
0.123988
0.16251
0.212171
0.259687
0.338278
-0.0754845
-0.07618
-0.0763041
-0.0730764
-0.0651957
-0.0525477
-0.0364782
-0.0194964
-0.00437705
0.00638122
0.0108837
0.00835173
-0.00101229
-0.0163465
-0.0364271
-0.0598882
-0.0853822
-0.111684
-0.137746
-0.16271
-0.185904
-0.206815
-0.22507
-0.240406
-0.252646
-0.261679
-0.267446
-0.269924
-0.26912
-0.265068
-0.257822
-0.247425
-0.233963
-0.217578
-0.19842
-0.176646
-0.15243
-0.12597
-0.0974783
-0.0671524
-0.0351322
-0.00142386
0.0342051
0.0724224
0.114396
0.162456
0.217672
0.288806
0.349191
0.424182
-0.0796609
-0.078958
-0.0773442
-0.0717312
-0.0611844
-0.0459511
-0.0276366
-0.00884155
0.00765652
0.0196484
0.0253719
0.0238293
0.0152097
0.000352387
-0.0195432
-0.0431093
-0.0689704
-0.095858
-0.122672
-0.1485
-0.17262
-0.194477
-0.213663
-0.229887
-0.242957
-0.252752
-0.259208
-0.262306
-0.262057
-0.258502
-0.251703
-0.24175
-0.228719
-0.21269
-0.19382
-0.172285
-0.148247
-0.121858
-0.0932494
-0.0624809
-0.0294672
0.00615749
0.0452432
0.0895056
0.141865
0.207544
0.291341
0.403279
0.495569
0.603173
-0.103091
-0.0952656
-0.0868145
-0.0760235
-0.0616617
-0.0433371
-0.0226948
-0.00231178
0.0153665
0.0281314
0.0342964
0.0331773
0.0249667
0.0104555
-0.00920255
-0.0326737
-0.0585982
-0.0857032
-0.112869
-0.139156
-0.16381
-0.186244
-0.206024
-0.222839
-0.236478
-0.246812
-0.25377
-0.257329
-0.257504
-0.254334
-0.247887
-0.238247
-0.225511
-0.209788
-0.191202
-0.169892
-0.146004
-0.119663
-0.0909293
-0.0597403
-0.0257922
0.0116596
0.0541313
0.104545
0.168032
0.254088
0.37539
0.555464
0.767467
1.10766
-0.189921
-0.11216
-0.0805681
-0.0713375
-0.058062
-0.0386964
-0.0170129
0.00397601
0.0217635
0.0341772
0.0398148
0.0381954
0.0295924
0.0148257
-0.00495814
-0.0284619
-0.0543715
-0.0814531
-0.108614
-0.134929
-0.159647
-0.182182
-0.202094
-0.219063
-0.232874
-0.24339
-0.250535
-0.254285
-0.254649
-0.251669
-0.245409
-0.235953
-0.2234
-0.207857
-0.189445
-0.168294
-0.144536
-0.118266
-0.0894895
-0.0580449
-0.0234644
0.0152767
0.060172
0.114966
0.18622
0.286281
0.435042
0.680136
1.07918
1.82838
)
;

boundaryField
{
    movingWall
    {
        type            zeroGradient;
    }
    fixedWalls
    {
        type            zeroGradient;
    }
    frontAndBack
    {
        type            empty;
    }
}


// ************************************************************************* //
