/*--------------------------------*- C++ -*----------------------------------*\
  =========                 |
  \\      /  F ield         | OpenFOAM: The Open Source CFD Toolbox
   \\    /   O peration     | Website:  https://openfoam.org
    \\  /    A nd           | Version:  7
     \\/     M anipulation  |
\*---------------------------------------------------------------------------*/
FoamFile
{
    version     2.0;
    format      ascii;
    class       surfaceScalarField;
    location    "650";
    object      phi;
}
// * * * * * * * * * * * * * * * * * * * * * * * * * * * * * * * * * * * * * //

dimensions      [0 3 -1 0 0 0 0];

internalField   nonuniform List<scalar> 
4900
(
1.6895e-06
-1.71553e-06
6.22066e-06
-4.53131e-06
1.17162e-05
-5.49559e-06
1.65033e-05
-4.78711e-06
1.97508e-05
-3.24752e-06
2.13895e-05
-1.63873e-06
2.17674e-05
-3.77956e-07
2.1261e-05
5.06334e-07
2.00132e-05
1.24769e-06
1.78597e-05
2.1534e-06
1.4407e-05
3.45261e-06
9.168e-06
5.23896e-06
1.65124e-06
7.51669e-06
-8.59555e-06
1.02467e-05
-2.1922e-05
1.33264e-05
-3.84912e-05
1.65691e-05
-5.82073e-05
1.97161e-05
-8.06348e-05
2.24275e-05
-0.000104935
2.43003e-05
-0.000129851
2.49158e-05
-0.000153754
2.39035e-05
-0.000174759
2.10041e-05
-0.000190881
1.61223e-05
-0.000200246
9.36469e-06
-0.000201331
1.08532e-06
-0.000193195
-8.13629e-06
-0.000175591
-1.76035e-05
-0.00014904
-2.65507e-05
-0.000114835
-3.42051e-05
-7.50008e-05
-3.98346e-05
-3.2188e-05
-4.28128e-05
1.04878e-05
-4.26758e-05
4.97687e-05
-3.9281e-05
8.28011e-05
-3.30324e-05
0.000107407
-2.46061e-05
0.00012232
-1.49128e-05
0.000127423
-5.10262e-06
0.000123794
3.62832e-06
0.000113431
1.03629e-05
9.87252e-05
1.4706e-05
8.20199e-05
1.67053e-05
6.52541e-05
1.67658e-05
4.97748e-05
1.54794e-05
3.63171e-05
1.34576e-05
2.51096e-05
1.12075e-05
1.60449e-05
9.06461e-06
8.89687e-06
7.14805e-06
3.59627e-06
5.30057e-06
5.05871e-07
3.09038e-06
5.05866e-07
4.47005e-06
-6.18577e-06
1.38452e-05
-1.39067e-05
2.43089e-05
-1.59594e-05
3.2897e-05
-1.33753e-05
3.79979e-05
-8.3485e-06
3.92215e-05
-2.86246e-06
3.68496e-05
1.99375e-06
3.11887e-05
6.16706e-06
2.213e-05
1.03062e-05
9.04464e-06
1.52385e-05
-9.06519e-06
2.15623e-05
-3.33008e-05
2.94744e-05
-6.45622e-05
3.87779e-05
-0.000103289
4.89732e-05
-0.00014925
5.92879e-05
-0.000201386
6.87042e-05
-0.000257747
7.60768e-05
-0.000315621
8.03023e-05
-0.000371812
8.04904e-05
-0.000422981
7.60849e-05
-0.000465991
6.69132e-05
-0.000498162
5.31756e-05
-0.000517441
3.54014e-05
-0.000522486
1.44096e-05
-0.000512752
-8.64885e-06
-0.000488332
-3.25565e-05
-0.000449862
-5.60737e-05
-0.000398544
-7.78687e-05
-0.000336206
-9.6543e-05
-0.000265321
-0.000110719
-0.00018898
-0.000119154
-0.000110757
-0.000120899
-3.45317e-05
-0.000115506
3.56204e-05
-0.000103185
9.60058e-05
-8.49915e-05
0.000143808
-6.27147e-05
0.000177101
-3.83963e-05
0.000195095
-1.43654e-05
0.000198379
7.07835e-06
0.00018905
2.40354e-05
0.000170254
3.55017e-05
0.000145581
4.14384e-05
0.000118442
4.26181e-05
9.16041e-05
4.02955e-05
6.69356e-05
3.5876e-05
4.54252e-05
3.05749e-05
2.74643e-05
2.51089e-05
1.33382e-05
1.94267e-05
3.75663e-06
1.26719e-05
4.26249e-06
5.9859e-06
-1.21718e-05
1.73344e-05
-2.52553e-05
2.87969e-05
-2.74221e-05
3.68142e-05
-2.13927e-05
3.95243e-05
-1.10587e-05
3.63384e-05
3.23288e-07
2.71931e-05
1.11389e-05
1.18801e-05
2.14798e-05
-1.03664e-05
3.25526e-05
-4.08246e-05
4.56965e-05
-8.08543e-05
6.15918e-05
-0.000131378
7.99984e-05
-0.000192461
9.98602e-05
-0.000262995
0.000119507
-0.000340633
0.000136925
-0.000422015
0.000150086
-0.000503222
0.000157284
-0.000580302
0.000157382
-0.000649708
0.000149896
-0.000708578
0.000134956
-0.000754831
0.000113165
-0.00078711
8.54553e-05
-0.000804655
5.29463e-05
-0.000807115
1.68693e-05
-0.000794356
-2.14081e-05
-0.000766394
-6.05186e-05
-0.000723539
-9.89283e-05
-0.000666525
-0.000134883
-0.000596587
-0.000166481
-0.000515571
-0.000191736
-0.000425996
-0.000208729
-0.000331058
-0.000215838
-0.000234541
-0.000212023
-0.000140581
-0.000197144
-5.34081e-05
-0.000172165
2.30129e-05
-0.000139136
8.57065e-05
-0.00010109
0.00013288
-6.15388e-05
0.000163565
-2.36071e-05
0.000177904
9.69647e-06
0.000177432
3.59738e-05
0.000164949
5.39208e-05
0.000144004
6.35635e-05
0.000118277
6.6022e-05
9.1031e-05
6.31224e-05
6.474e-05
5.68659e-05
4.10648e-05
4.8784e-05
2.12084e-05
3.92831e-05
6.60761e-06
2.72726e-05
1.08701e-05
6.50753e-06
-1.86794e-05
1.75927e-05
-3.63407e-05
2.69425e-05
-3.6772e-05
3.07422e-05
-2.51925e-05
2.71859e-05
-7.50248e-06
1.55797e-05
1.19294e-05
-4.61283e-06
3.13312e-05
-3.44069e-05
5.12737e-05
-7.53263e-05
7.34719e-05
-0.000128848
9.92179e-05
-0.0001957
0.000128444
-0.0002753
0.000159598
-0.000365518
0.000190078
-0.000462863
0.000216852
-0.000563019
0.000237081
-0.000661537
0.000248603
-0.00075444
0.000250187
-0.000838591
0.000241533
-0.000911783
0.000223088
-0.000972613
0.000195786
-0.00102026
0.00016081
-0.00105423
0.000119424
-0.00107417
7.2893e-05
-0.00107978
2.24736e-05
-0.00107065
-3.05347e-05
-0.00104649
-8.46828e-05
-0.00100713
-0.000138284
-0.000952654
-0.000189362
-0.000883466
-0.000235669
-0.000800496
-0.000274705
-0.000705373
-0.000303852
-0.000600585
-0.000320626
-0.000489548
-0.000323059
-0.000376535
-0.000310158
-0.000266378
-0.000282322
-0.00016393
-0.000241583
-7.35126e-05
-0.000191508
1.5999e-06
-0.000136651
5.98305e-05
-8.18377e-05
0.000100875
-3.13484e-05
0.00012499
1.18596e-05
0.000133462
4.54484e-05
0.000128797
6.82288e-05
0.000114288
8.053e-05
9.35203e-05
8.38906e-05
6.98543e-05
8.05318e-05
4.61079e-05
7.25303e-05
2.46327e-05
6.07583e-05
7.92732e-06
4.39779e-05
1.87974e-05
6.20349e-06
-2.4883e-05
1.48882e-05
-4.50255e-05
1.91904e-05
-4.10743e-05
1.54499e-05
-2.14522e-05
2.11978e-06
5.82749e-06
-2.1685e-05
3.5734e-05
-5.71424e-05
6.67886e-05
-0.00010598
0.000100111
-0.00016982
0.000137312
-0.000249223
0.000178621
-0.000343
0.000222222
-0.000448131
0.000264729
-0.000560229
0.000302176
-0.000674349
0.000330973
-0.000785815
0.000348547
-0.000890808
0.000353596
-0.000986602
0.000345981
-0.00107148
0.000326415
-0.0011445
0.000296104
-0.00120517
0.000256454
-0.00125325
0.000208889
-0.00128859
0.000154763
-0.00131105
9.53564e-05
-0.00132047
3.18973e-05
-0.00131659
-3.44221e-05
-0.00129902
-0.000102244
-0.00126731
-0.000170001
-0.00122086
-0.000235804
-0.00115916
-0.00029737
-0.00108191
-0.000351956
-0.000989351
-0.000396415
-0.000882577
-0.0004274
-0.000763883
-0.000441753
-0.000636964
-0.000437078
-0.00050688
-0.000412405
-0.000379662
-0.000368802
-0.00026151
-0.000309659
-0.000157728
-0.000240433
-7.18449e-05
-0.000167721
-5.30441e-06
-9.7889e-05
4.24335e-05
-3.58784e-05
7.26148e-05
1.52671e-05
8.68424e-05
5.40011e-05
8.7643e-05
7.97293e-05
7.82245e-05
9.3309e-05
6.20985e-05
9.66578e-05
4.27258e-05
9.19029e-05
2.34011e-05
8.00829e-05
7.60097e-06
5.9778e-05
2.63984e-05
4.89502e-06
-2.97781e-05
8.86858e-06
-4.89992e-05
5.2663e-06
-3.74722e-05
-8.96076e-06
-7.22524e-06
-3.51575e-05
3.20241e-05
-7.44876e-05
7.50639e-05
-0.00012867
0.000120971
-0.000199452
0.000170893
-0.000287389
0.000225248
-0.000390951
0.000282183
-0.000506488
0.000337759
-0.000628935
0.000387175
-0.000752839
0.000426081
-0.000873295
0.000451429
-0.000986502
0.000461754
-0.0010899
0.000456998
-0.00118202
0.000438096
-0.00126215
0.000406542
-0.00133009
0.000364052
-0.00138599
0.000312351
-0.00143016
0.000253058
-0.00146302
0.000187627
-0.001485
0.000117334
-0.00149641
4.33065e-05
-0.00149735
-3.34814e-05
-0.00148759
-0.000112008
-0.0014665
-0.000191091
-0.00143304
-0.000269264
-0.00138582
-0.000344591
-0.00132327
-0.000414505
-0.00124394
-0.000475742
-0.00114694
-0.000524401
-0.00103246
-0.00055623
-0.000902378
-0.000567164
-0.000760643
-0.000554141
-0.000613383
-0.000516062
-0.000468381
-0.000454661
-0.000333895
-0.000374919
-0.000216993
-0.000284623
-0.000121986
-0.000192895
-4.98375e-05
-0.000108027
1.0863e-06
-3.56568e-05
3.33874e-05
2.16999e-05
4.96177e-05
6.34989e-05
5.27357e-05
9.0191e-05
4.6155e-05
0.000103238
3.35779e-05
0.00010448
1.88653e-05
9.47955e-05
6.11138e-06
7.25319e-05
3.25097e-05
2.26916e-06
-3.20473e-05
-9.31341e-07
-4.57989e-05
-1.50364e-05
-2.33673e-05
-4.22371e-05
1.99753e-05
-8.3717e-05
7.35039e-05
-0.000140911
0.000132258
-0.000215517
0.000195578
-0.000308212
0.000263587
-0.000417453
0.000334489
-0.00053929
0.00040402
-0.000668172
0.000466641
-0.000798165
0.000517168
-0.000924
0.000551915
-0.00104166
0.000569087
-0.00114849
0.000568586
-0.00124302
0.000551531
-0.00132468
0.000519753
-0.00139354
0.000475406
-0.00145018
0.000420692
-0.00149552
0.000357682
-0.00153066
0.0002882
-0.00155678
0.000213745
-0.00157493
0.000135487
-0.00158594
5.43119e-05
-0.00159028
-2.91385e-05
-0.00158797
-0.000114319
-0.00157847
-0.000200588
-0.00156061
-0.000287122
-0.00153256
-0.000372643
-0.00149187
-0.000455191
-0.00143569
-0.00053193
-0.00136107
-0.000599021
-0.00126563
-0.000651668
-0.00114833
-0.000684465
-0.00101035
-0.000692115
-0.000855877
-0.00067054
-0.000692301
-0.000618237
-0.000529669
-0.000537551
-0.000378998
-0.000435295
-0.00024977
-0.000322123
-0.00014747
-0.000210327
-7.25651e-05
-0.000110562
-2.17553e-05
-2.91099e-05
9.28138e-06
3.24622e-05
2.44038e-05
7.50685e-05
2.73956e-05
0.000100247
2.22138e-05
0.000109662
1.3038e-05
0.000103971
4.21029e-06
8.13595e-05
3.672e-05
-1.9248e-06
-3.01225e-05
-1.46753e-05
-3.30484e-05
-4.1362e-05
3.31918e-06
-8.32746e-05
6.18878e-05
-0.000141425
0.000131654
-0.000217211
0.000208043
-0.000311412
0.000289778
-0.000422739
0.000374915
-0.000547297
0.000459047
-0.000679276
0.000535999
-0.000812288
0.000599653
-0.000940571
0.000645451
-0.00105968
0.000671027
-0.00116667
0.000676072
-0.00125991
0.000661823
-0.00133886
0.000630485
-0.00140387
0.000584759
-0.00145594
0.000527475
-0.00149656
0.000461318
-0.00152751
0.000388634
-0.00155062
0.000311304
-0.00156758
0.000230706
-0.00157984
0.00014775
-0.00158851
6.29788e-05
-0.00159431
-2.33413e-05
-0.0015975
-0.000111125
-0.00159783
-0.000200259
-0.00159439
-0.000290566
-0.0015855
-0.000381528
-0.00156863
-0.000472064
-0.00154031
-0.000560245
-0.00149634
-0.000642997
-0.00143213
-0.000715875
-0.00134355
-0.000773048
-0.00122798
-0.000807677
-0.0010857
-0.000812823
-0.000920989
-0.000782949
-0.000742705
-0.000715836
-0.00056359
-0.000614409
-0.000398017
-0.000487697
-0.000258382
-0.000349962
-0.000151462
-0.000217481
-7.69107e-05
-0.000103662
-2.92664e-05
-1.51822e-05
-2.10228e-06
4.79043e-05
9.953e-06
8.81913e-05
1.17168e-05
0.000107898
7.78451e-06
0.000107903
2.59885e-06
8.65451e-05
3.93189e-05
-7.7539e-06
-2.23687e-05
-3.19233e-05
-8.8792e-06
-7.25384e-05
4.39341e-05
-0.000129856
0.000119205
-0.000204696
0.000206495
-0.000297788
0.000301135
-0.000408233
0.000400223
-0.000532517
0.0004992
-0.000664864
0.000591393
-0.00079854
0.000669675
-0.000927233
0.000728346
-0.00104593
0.000764149
-0.00115122
0.000776315
-0.00124121
0.000766068
-0.00131537
0.000735975
-0.00137423
0.000689352
-0.00141925
0.000629775
-0.00145245
0.000560672
-0.00147615
0.000485021
-0.00149269
0.000405173
-0.00150418
0.0003228
-0.00151243
0.000238951
-0.00151884
0.000154165
-0.00152448
6.86178e-05
-0.00153008
-1.77495e-05
-0.00153603
-0.000105168
-0.00154241
-0.00019388
-0.00154883
-0.000284148
-0.00155429
-0.00037607
-0.00155693
-0.000469422
-0.00155379
-0.000563379
-0.00154064
-0.000656149
-0.001512
-0.00074452
-0.00146158
-0.000823466
-0.00138327
-0.000885983
-0.00127264
-0.00092346
-0.00112875
-0.000926838
-0.000955952
-0.000888631
-0.000764756
-0.000805606
-0.000571042
-0.00068141
-0.000393029
-0.000527976
-0.000246251
-0.000364259
-0.000138455
-0.000211458
-6.77479e-05
-8.58895e-05
-2.59277e-05
6.08405e-06
-4.33279e-06
6.65963e-05
3.85737e-06
9.97076e-05
4.276e-06
0.000107485
1.71302e-06
8.91081e-05
4.10319e-05
-1.49452e-05
-7.42359e-06
-5.16922e-05
2.78676e-05
-0.00010653
9.8772e-05
-0.000178783
0.000191458
-0.000268799
0.000296511
-0.000376034
0.000408369
-0.000497613
0.000521802
-0.000628137
0.000629723
-0.000760748
0.000724005
-0.000888629
0.000797556
-0.00100612
0.000845838
-0.00110923
0.000867262
-0.00119572
0.000862804
-0.00126494
0.000835288
-0.00131763
0.000788664
-0.00135562
0.000727339
-0.00138144
0.000655597
-0.00139793
0.000577157
-0.00140781
0.000494904
-0.00141347
0.000410832
-0.0014168
0.000326132
-0.00141922
0.000241375
-0.00142176
0.000156697
-0.00142511
7.19732e-05
-0.0014298
-1.30626e-05
-0.00143621
-9.87594e-05
-0.00144461
-0.00018548
-0.00145513
-0.000273624
-0.00146761
-0.000363593
-0.00148131
-0.00045572
-0.00149458
-0.000550107
-0.00150442
-0.000646314
-0.00150608
-0.000742859
-0.001493
-0.000836552
-0.00145716
-0.000921819
-0.0013903
-0.000990322
-0.00128585
-0.00103128
-0.00114155
-0.00103294
-0.000961835
-0.00098532
-0.00075922
-0.000884025
-0.000553269
-0.000733927
-0.000366447
-0.000551081
-0.000217237
-0.000360668
-0.000113379
-0.000189748
-5.02165e-05
-5.70783e-05
-1.63569e-05
3.27366e-05
-1.30057e-06
8.46513e-05
2.74346e-06
0.000103441
1.64707e-06
9.02044e-05
4.2679e-05
-2.29992e-05
1.55755e-05
-7.24709e-05
7.73392e-05
-0.000140744
0.000167045
-0.000226302
0.000277016
-0.000328619
0.000398828
-0.000445563
0.000525313
-0.000572463
0.000648702
-0.000702681
0.000759942
-0.000829063
0.000850386
-0.000945303
0.000913796
-0.00104675
0.000947282
-0.00113066
0.000951172
-0.00119617
0.00092832
-0.00124412
0.00088323
-0.00127664
0.000821188
-0.00129675
0.000747448
-0.00130775
0.000666596
-0.00131274
0.000582155
-0.00131432
0.000496482
-0.00131439
0.000410904
-0.00131424
0.000325976
-0.00131463
0.000241768
-0.00131602
0.000158083
-0.00131866
7.46121e-05
-0.00132275
-8.96984e-06
-0.00132854
-9.29704e-05
-0.00133633
-0.000177685
-0.00134654
-0.000263415
-0.00135959
-0.000350548
-0.00137574
-0.00043957
-0.0013948
-0.000531049
-0.00141562
-0.000625492
-0.00143549
-0.000722991
-0.00144947
-0.000822565
-0.00145007
-0.00092122
-0.00142753
-0.00101287
-0.00137123
-0.00108758
-0.00127229
-0.00113187
-0.00112703
-0.00113058
-0.000940304
-0.00107075
-0.000727278
-0.000946953
-0.000511945
-0.000766414
-0.000321275
-0.000551337
-0.000175873
-0.00033515
-8.16438e-05
-0.000151307
-2.96367e-05
-1.92705e-05
-5.40577e-06
6.04202e-05
2.48736e-06
9.55475e-05
2.17979e-06
9.05119e-05
4.48587e-05
-3.11733e-05
4.67487e-05
-9.24464e-05
0.000138612
-0.000172443
0.000247041
-0.000268689
0.000373262
-0.000379522
0.000509661
-0.000501254
0.000647044
-0.000627888
0.000775337
-0.00075225
0.000884303
-0.000867498
0.000965635
-0.000968254
0.00101455
-0.00105114
0.00103016
-0.00111489
0.00101493
-0.00116024
0.000973669
-0.00118953
0.000912517
-0.00120614
0.000837797
-0.00121382
0.00075513
-0.00121606
0.000668833
-0.00121564
0.000581739
-0.00121451
0.00049535
-0.0012138
0.000410194
-0.00121404
0.000326221
-0.00121538
0.000243109
-0.00121777
0.000160474
-0.00122113
7.79636e-05
-0.0012254
-4.69737e-06
-0.00123067
-8.77008e-05
-0.00123716
-0.000171198
-0.00124526
-0.000255311
-0.00125557
-0.000340239
-0.00126882
-0.00042632
-0.00128576
-0.000514109
-0.00130684
-0.000604412
-0.00133163
-0.000698199
-0.00135797
-0.000796226
-0.00138098
-0.00089821
-0.00139235
-0.00100149
-0.00138053
-0.0010994
-0.00133237
-0.00118004
-0.00123653
-0.00122642
-0.00108812
-0.00121916
-0.000893124
-0.00114195
-0.000670473
-0.000989066
-0.000449542
-0.000772267
-0.000261702
-0.000522991
-0.000127815
-0.000285194
-4.91748e-05
-9.79105e-05
-1.12894e-05
2.25348e-05
2.15131e-06
8.21067e-05
2.87878e-06
8.97844e-05
4.77375e-05
-3.85927e-05
8.53413e-05
-0.000109891
0.00020991
-0.000199144
0.000336295
-0.000302808
0.000476925
-0.00041802
0.000624873
-0.000539821
0.000768845
-0.000661468
0.000896983
-0.000775845
0.000998681
-0.000876877
0.00106667
-0.000960403
0.00109808
-0.00102454
0.0010943
-0.00106966
0.00106005
-0.00109807
0.00100208
-0.00111338
0.000927825
-0.00111971
0.000844129
-0.00112092
0.000756341
-0.00112005
0.000667965
-0.00111912
0.000580801
-0.00111916
0.000495397
-0.00112054
0.000411571
-0.00112316
0.000328845
-0.00112677
0.000246712
-0.00113105
0.00016476
-0.00113579
8.26992e-05
-0.00114084
3.55119e-07
-0.00114619
-8.2353e-05
-0.00115193
-0.000165454
-0.00115831
-0.000248935
-0.00116574
-0.000332807
-0.0011749
-0.000417167
-0.00118671
-0.00050229
-0.00120236
-0.000588767
-0.00122293
-0.000677632
-0.0012488
-0.000770353
-0.00127855
-0.000868462
-0.00130751
-0.000972527
-0.00132662
-0.0010803
-0.00132234
-0.00118431
-0.00127879
-0.00126998
-0.00118219
-0.00131576
-0.00102707
-0.00129707
-0.00082184
-0.0011943
-0.000590869
-0.00100324
-0.000369907
-0.000743952
-0.000193723
-0.000461378
-8.00066e-05
-0.000211627
-2.19637e-05
-3.55082e-05
2.38235e-07
5.99047e-05
3.2697e-06
8.67529e-05
5.10072e-05
-4.44903e-05
0.000129832
-0.000123375
0.000288795
-0.000218933
0.000431852
-0.000326482
0.000584475
-0.000442082
0.000740473
-0.000559919
0.000886682
-0.000673044
0.00101011
-0.000774869
0.00110051
-0.000860392
0.00115219
-0.000926874
0.00116456
-0.000974032
0.00114146
-0.00100382
0.00108983
-0.00101984
0.0010181
-0.00102646
0.000934443
-0.00102788
0.000845556
-0.00102746
0.000755921
-0.00102736
0.000667865
-0.00102863
0.000582071
-0.0010315
0.000498267
-0.00103574
0.000415806
-0.00104093
0.000334035
-0.00104667
0.000252457
-0.00105266
0.00017075
-0.0010587
8.87362e-05
-0.00106468
6.33539e-06
-0.00107057
-7.64624e-05
-0.0010764
-0.000159628
-0.00108223
-0.000243101
-0.00108824
-0.000326799
-0.00109476
-0.000410647
-0.00110241
-0.000494642
-0.0011122
-0.000578976
-0.00112559
-0.00066424
-0.00114427
-0.000751667
-0.00116949
-0.000843248
-0.00120061
-0.0009414
-0.00123324
-0.00104767
-0.00125737
-0.00116018
-0.0012572
-0.00127015
-0.00121383
-0.00135912
-0.00111139
-0.00139952
-0.000945043
-0.00136064
-0.000727792
-0.00122049
-0.000491575
-0.00098017
-0.000278999
-0.000673954
-0.000125351
-0.000365275
-3.96902e-05
-0.000121169
-4.40281e-06
2.46173e-05
3.02729e-06
7.93228e-05
5.40345e-05
-4.82961e-05
0.000178127
-0.000131917
0.000372415
-0.00023063
0.000530565
-0.000338628
0.000692472
-0.000451126
0.000852971
-0.000561898
0.000997454
-0.000664241
0.00111245
-0.000752415
0.00118868
-0.000822685
0.00122246
-0.000873808
0.00121568
-0.000907028
0.00117468
-0.000925601
0.00110841
-0.000933928
0.00102642
-0.000936503
0.000937018
-0.000937027
0.00084608
-0.000937934
0.000756828
-0.000940381
0.000670312
-0.000944574
0.000586264
-0.000950182
0.000503875
-0.000956701
0.000422324
-0.000963668
0.000341003
-0.00097076
0.000259548
-0.000977788
0.000177778
-0.00098467
9.56182e-05
-0.000991386
1.30508e-05
-0.000997937
-6.99108e-05
-0.00100433
-0.000153238
-0.00101055
-0.000236883
-0.00101658
-0.000320765
-0.00102246
-0.000404763
-0.00102837
-0.000488732
-0.00103478
-0.000572565
-0.00104268
-0.000656343
-0.00105372
-0.000740624
-0.00107015
-0.000826822
-0.00109404
-0.000917513
-0.00112558
-0.00101613
-0.00116044
-0.00112532
-0.00118729
-0.0012433
-0.00118748
-0.00135893
-0.00113892
-0.00144807
-0.00102447
-0.00147509
-0.000842178
-0.00140278
-0.0006127
-0.00120965
-0.000377765
-0.000908888
-0.000185621
-0.00055742
-6.59159e-05
-0.000240874
-1.23451e-05
-2.89536e-05
2.03628e-06
6.49414e-05
5.60708e-05
-4.96815e-05
0.000227809
-0.000135027
0.000457761
-0.000233815
0.000629353
-0.00033918
0.000797837
-0.000445785
0.000959576
-0.000547387
0.00109906
-0.000637859
0.00120292
-0.000712507
0.00126333
-0.000768926
0.00127888
-0.000807292
0.00125405
-0.000830119
0.00119751
-0.000841515
0.0011198
-0.000846099
0.00103101
-0.000847937
0.000938856
-0.000849847
0.00084799
-0.000853243
0.000760224
-0.00085842
0.000675489
-0.00086502
0.000592864
-0.000872476
0.000511331
-0.000880278
0.000430126
-0.000888087
0.000348813
-0.000895739
0.0002672
-0.000903193
0.000185232
-0.000910477
0.000102902
-0.000917641
2.02153e-05
-0.000924729
-6.28228e-05
-0.000931754
-0.000146212
-0.000938692
-0.000229946
-0.000945469
-0.000313988
-0.000951974
-0.000398258
-0.000958096
-0.000482611
-0.000963826
-0.000566835
-0.000969458
-0.000650711
-0.000975891
-0.000734191
-0.000984939
-0.000817774
-0.000999358
-0.000903093
-0.00102206
-0.000993434
-0.00105391
-0.00109347
-0.00109026
-0.00120695
-0.00111762
-0.00133157
-0.00111374
-0.00145195
-0.00105343
-0.00153541
-0.000920064
-0.00153614
-0.000718194
-0.00141152
-0.000479991
-0.00114709
-0.000258119
-0.000779292
-0.000101457
-0.000397536
-2.37511e-05
-0.00010666
3.03615e-07
4.08866e-05
5.63744e-05
-4.85608e-05
0.00027637
-0.00013268
0.000541879
-0.000228726
0.000725399
-0.000328889
0.000898
-0.000427562
0.00105825
-0.000518804
0.0011903
-0.000597277
0.0012814
-0.000659408
0.00132546
-0.000704055
0.00132352
-0.000732592
0.00128259
-0.000748414
0.00121333
-0.000755967
0.00112736
-0.000759581
0.00103462
-0.000762534
0.000941809
-0.000766658
0.000852113
-0.000772486
0.000766053
-0.000779738
0.00068274
-0.000787816
0.000600943
-0.000796165
0.00051968
-0.000804421
0.000438383
-0.000812427
0.000356818
-0.000820167
0.000274941
-0.000827709
0.000192774
-0.000835143
0.000110336
-0.000842554
2.76264e-05
-0.000850005
-5.53712e-05
-0.000857527
-0.000138691
-0.00086511
-0.000222363
-0.000872697
-0.000306401
-0.000880164
-0.000390791
-0.000887316
-0.000475459
-0.000893911
-0.00056024
-0.000899765
-0.000644856
-0.000904988
-0.000728968
-0.000910383
-0.000812379
-0.00091793
-0.000895546
-0.000930945
-0.000980419
-0.000953156
-0.00107126
-0.000985841
-0.00117427
-0.00102319
-0.00129422
-0.00104836
-0.00142678
-0.00103462
-0.00154915
-0.000954584
-0.00161618
-0.000795645
-0.00157046
-0.000573965
-0.00136877
-0.000337019
-0.00101624
-0.000146047
-0.000588508
-3.89958e-05
-0.000213711
-2.3103e-06
4.20104e-06
5.40641e-05
-4.50543e-05
0.000321424
-0.000125216
0.000622041
-0.000216094
0.000816277
-0.000309056
0.000990962
-0.000398467
0.00114766
-0.000478911
0.00127074
-0.000545947
0.00134843
-0.000597089
0.0013766
-0.00063228
0.00135872
-0.000653765
0.00130407
-0.000665383
0.00122495
-0.000671459
0.00113343
-0.000675688
0.00103885
-0.000680439
0.00094656
-0.000686665
0.000858339
-0.000694293
0.000773681
-0.000702767
0.000691214
-0.000711494
0.00060967
-0.000720069
0.000528254
-0.000728314
0.000446628
-0.000736227
0.000364731
-0.000743893
0.000282607
-0.000751427
0.000200308
-0.00075894
0.000117849
-0.000766517
3.52032e-05
-0.000774221
-4.76668e-05
-0.000782088
-0.000130824
-0.000790127
-0.000214323
-0.000798313
-0.000298214
-0.000806568
-0.000382536
-0.000814735
-0.000467293
-0.000822557
-0.000552418
-0.000829686
-0.000637727
-0.000835783
-0.000722872
-0.000840789
-0.000807373
-0.000845456
-0.000890879
-0.000852014
-0.000973861
-0.000864447
-0.00105882
-0.000887269
-0.00115145
-0.000921608
-0.00125988
-0.000959152
-0.00138924
-0.000978003
-0.0015303
-0.000946547
-0.00164763
-0.000837846
-0.00167916
-0.000649094
-0.00155752
-0.000414355
-0.00125098
-0.000197643
-0.000805221
-5.87377e-05
-0.000352616
-5.87709e-06
-4.86596e-05
4.8187e-05
-3.94352e-05
0.000360859
-0.000113238
0.000695844
-0.000196963
0.000900002
-0.000281276
0.00107528
-0.000360689
0.00122707
-0.000430452
0.00134051
-0.000487034
0.00140501
-0.00052891
0.00141848
-0.000556852
0.00138666
-0.000573611
0.00132083
-0.000583066
0.0012344
-0.000589087
0.00113945
-0.00059458
0.00104434
-0.000601067
0.000953047
-0.000608855
0.000866127
-0.00061754
0.000782366
-0.00062653
0.000700204
-0.000635364
0.000618504
-0.000643824
0.000536714
-0.00065189
0.000454695
-0.000659658
0.000372498
-0.000667256
0.000290205
-0.000674809
0.000207861
-0.000682417
0.000125457
-0.000690151
4.29382e-05
-0.000698068
-3.97506e-05
-0.000706196
-0.000122696
-0.000714553
-0.000205966
-0.000723138
-0.00028963
-0.000731913
-0.00037376
-0.000740792
-0.000458414
-0.000749595
-0.000543614
-0.000758021
-0.000629301
-0.000765629
-0.000715263
-0.000771942
-0.000801061
-0.000776773
-0.000886047
-0.000780914
-0.00096972
-0.00078702
-0.00105272
-0.000799931
-0.00113854
-0.000824789
-0.00123502
-0.000861504
-0.00135252
-0.000897151
-0.00149465
-0.000902975
-0.00164181
-0.000843597
-0.00173854
-0.000698131
-0.00170299
-0.000481911
-0.0014672
-0.000252165
-0.00103497
-8.31216e-05
-0.000521659
-1.03772e-05
-0.000121404
3.78098e-05
-3.20756e-05
0.000392935
-9.74928e-05
0.000761261
-0.000172518
0.000975026
-0.000247216
0.00114997
-0.000316354
0.00129621
-0.000375908
0.00140006
-0.0004232
0.00145231
-0.00045748
0.00145276
-0.000480059
0.00140924
-0.000493848
0.00133462
-0.000502446
0.001243
-0.000509082
0.00114609
-0.000515879
0.00105114
-0.000523686
0.000960853
-0.000532409
0.00087485
-0.00054154
0.000791498
-0.000550581
0.000709245
-0.000559246
0.000627169
-0.000567475
0.000544943
-0.000575351
0.000462571
-0.000583013
0.00038016
-0.000590595
0.000297787
-0.000598208
0.000215475
-0.000605937
0.000133186
-0.00061384
5.08414e-05
-0.000621962
-3.16291e-05
-0.000630325
-0.000114332
-0.000638947
-0.000197344
-0.000647832
-0.000280745
-0.000656968
-0.000364625
-0.000666312
-0.00044907
-0.000675768
-0.000534158
-0.000685141
-0.000619928
-0.000694082
-0.000706323
-0.000702062
-0.00079308
-0.000708482
-0.000879628
-0.000713089
-0.000965113
-0.000716879
-0.00104893
-0.000723223
-0.00113219
-0.000738019
-0.00122022
-0.000766528
-0.00132401
-0.000805473
-0.00145571
-0.000834431
-0.00161285
-0.000816903
-0.00175606
-0.000718186
-0.00180171
-0.000533079
-0.0016523
-0.000304336
-0.00126371
-0.000111137
-0.000714858
-1.58134e-05
-0.000216728
2.19964e-05
-2.33996e-05
0.000416334
-7.87868e-05
0.000816648
-0.000143958
0.0010402
-0.000208465
0.00121448
-0.000267367
0.00135511
-0.000317365
0.00145006
-0.000356528
0.00149147
-0.000384673
0.0014809
-0.000403361
0.00142792
-0.000415377
0.00134663
-0.000423827
0.00125145
-0.000431244
0.00115351
-0.000439071
0.00105897
-0.000447687
0.000969469
-0.000456809
0.000883972
-0.000465963
0.000800652
-0.000474799
0.000718081
-0.000483187
0.000635557
-0.000491174
0.00055293
-0.000498892
0.00047029
-0.000506488
0.000387756
-0.000514084
0.000305384
-0.000521774
0.000223164
-0.000529627
0.000141039
-0.000537697
5.89111e-05
-0.000546022
-2.33032e-05
-0.000554622
-0.000105733
-0.000563506
-0.000188459
-0.000572678
-0.000271572
-0.000582131
-0.000355171
-0.000591843
-0.000439358
-0.000601765
-0.000524236
-0.000611788
-0.000609905
-0.000621692
-0.000696418
-0.000631073
-0.000783699
-0.000639307
-0.000871395
-0.000645688
-0.000958731
-0.000650005
-0.00104461
-0.000653731
-0.00112847
-0.000661359
-0.0012126
-0.000679915
-0.00130546
-0.000713434
-0.00142219
-0.00075215
-0.00157413
-0.000765176
-0.00174304
-0.000710515
-0.00185637
-0.000564019
-0.0017988
-0.000349126
-0.0014786
-0.000140793
-0.000923191
-2.20831e-05
-0.000335438
-8.66687e-08
-1.38481e-05
0.000430182
-5.7918e-05
0.000860718
-0.000112408
0.00109469
-0.000166436
0.00126851
-0.00021533
0.00140401
-0.000256471
0.0014912
-0.000288544
0.00152354
-0.000311724
0.00150408
-0.000327581
0.00144378
-0.000338551
0.0013576
-0.000347142
0.00126004
-0.000355219
0.00116158
-0.000363692
0.00106744
-0.000372654
0.000978431
-0.000381777
0.000893096
-0.000390694
0.00080957
-0.000399199
0.000726586
-0.000407277
0.000643635
-0.000415033
0.000560686
-0.000422614
0.000477871
-0.000430154
0.000395296
-0.000437758
0.000312988
-0.000445506
0.000230912
-0.000453463
0.000148997
-0.000461681
6.71301e-05
-0.000470203
-1.47811e-05
-0.000479042
-9.68937e-05
-0.000488205
-0.000179296
-0.00049769
-0.000262087
-0.000507486
-0.000345375
-0.000517574
-0.00042927
-0.000527922
-0.000513887
-0.000538472
-0.000599355
-0.000549096
-0.000685795
-0.000559532
-0.000773263
-0.000569299
-0.000861627
-0.000577664
-0.000950367
-0.000583858
-0.00103841
-0.0005879
-0.00112442
-0.000592174
-0.00120832
-0.000602766
-0.00129486
-0.00062733
-0.00139763
-0.000665744
-0.00153572
-0.000697159
-0.00171162
-0.000679463
-0.00187406
-0.000573905
-0.00190436
-0.000382826
-0.00166968
-0.000169518
-0.0011365
-2.93954e-05
-0.000475561
-2.94821e-05
-3.84089e-06
0.000434023
-3.56505e-05
0.000892527
-7.88774e-05
0.00113791
-0.00012233
0.00131196
-0.000161532
0.00144321
-0.00019446
0.00152413
-0.000220291
0.00154937
-0.000239374
0.00152316
-0.000253094
0.0014575
-0.000263399
0.00136791
-0.00027216
0.0012688
-0.000280651
0.00117008
-0.000289391
0.00107618
-0.00029833
0.00098737
-0.000307185
0.00090195
-0.00031571
0.000818095
-0.000323821
0.000734697
-0.000331573
0.000651388
-0.000339096
0.000568209
-0.000346528
0.000485304
-0.000353989
0.000402757
-0.000361569
0.000320568
-0.000369339
0.000238682
-0.000377362
0.000157021
-0.000385701
7.54697e-05
-0.000394402
-6.07985e-06
-0.000403481
-8.78147e-05
-0.000412942
-0.000169835
-0.000422773
-0.000252256
-0.000432958
-0.000335189
-0.000443476
-0.000418752
-0.000454298
-0.000503066
-0.000465382
-0.000588271
-0.000476653
-0.000674524
-0.000487949
-0.000761967
-0.000498945
-0.00085063
-0.000509055
-0.000940257
-0.000517429
-0.00103004
-0.000523334
-0.00111852
-0.000527367
-0.00120429
-0.000533455
-0.00128878
-0.000549535
-0.00138155
-0.000581937
-0.00150332
-0.000621114
-0.00167245
-0.000631058
-0.00186412
-0.000564453
-0.00197096
-0.000403553
-0.00183058
-0.000194873
-0.00134518
-3.78129e-05
-0.00063262
-6.7295e-05
6.0848e-06
0.000427938
-1.26523e-05
0.000911264
-4.42548e-05
0.00116952
-7.71381e-05
0.00134485
-0.000106966
0.00147304
-0.000132215
0.00154938
-0.000152434
0.00156959
-0.000168004
0.00153874
-0.000179991
0.00146949
-0.000189775
0.00137769
-0.000198598
0.00127762
-0.000207231
0.00117871
-0.00021592
0.00108487
-0.000224566
0.000996017
-0.00023297
0.000910354
-0.000241006
0.000826131
-0.000248677
0.000742368
-0.000256078
0.000658789
-0.000263341
0.000575472
-0.00027059
0.000492554
-0.000277929
0.000410096
-0.000285439
0.000328078
-0.000293186
0.000246429
-0.000301234
0.000165069
-0.000309659
8.38945e-05
-0.000318514
2.77608e-06
-0.000327827
-7.85018e-05
-0.000337597
-0.000160065
-0.000347804
-0.000242048
-0.000358428
-0.000324566
-0.000369439
-0.000407741
-0.000380808
-0.000491696
-0.0003925
-0.000576579
-0.000404459
-0.000662564
-0.000416582
-0.000749844
-0.000428651
-0.000838561
-0.000440246
-0.000928661
-0.00045065
-0.00101964
-0.000458928
-0.00111024
-0.000464606
-0.00119861
-0.000469456
-0.00128393
-0.000479686
-0.00137132
-0.000504349
-0.00147865
-0.000543641
-0.00163315
-0.000571672
-0.00183609
-0.000539074
-0.00200356
-0.0004112
-0.00195846
-0.000215097
-0.00154128
-4.69127e-05
-0.000800804
-0.000114208