/*--------------------------------*- C++ -*----------------------------------*\
  =========                 |
  \\      /  F ield         | OpenFOAM: The Open Source CFD Toolbox
   \\    /   O peration     | Website:  https://openfoam.org
    \\  /    A nd           | Version:  7
     \\/     M anipulation  |
\*---------------------------------------------------------------------------*/
FoamFile
{
    version     2.0;
    format      ascii;
    class       volVectorField;
    location    "650";
    object      U;
}
// * * * * * * * * * * * * * * * * * * * * * * * * * * * * * * * * * * * * * //

dimensions      [0 1 -1 0 0 0 0];

internalField   nonuniform List<vector> 
2500
(
(0.000205021 -0.000203968 0)
(0.00186254 -0.000572745 0)
(0.00447334 -0.000698301 0)
(0.00716345 -0.000600314 0)
(0.0092298 -0.000419083 0)
(0.010451 -0.00026441 0)
(0.0109306 -0.000188102 0)
(0.0108812 -0.000186003 0)
(0.0104502 -0.000219994 0)
(0.00963292 -0.000245528 0)
(0.00828001 -0.000228715 0)
(0.006159 -0.000150706 0)
(0.00301248 -2.45152e-06 0)
(-0.00140343 0.00022143 0)
(-0.00729346 0.000524086 0)
(-0.0147903 0.000909081 0)
(-0.0239164 0.00137645 0)
(-0.0345418 0.00191459 0)
(-0.0463488 0.00249029 0)
(-0.0588112 0.00304124 0)
(-0.0712005 0.00347762 0)
(-0.0826229 0.00369477 0)
(-0.0920891 0.00359417 0)
(-0.0986161 0.00311053 0)
(-0.101338 0.002238 0)
(-0.0995805 0.00103454 0)
(-0.0930741 -0.000369131 0)
(-0.0818917 -0.00180733 0)
(-0.0665001 -0.00310644 0)
(-0.0477552 -0.00409947 0)
(-0.0268754 -0.00464145 0)
(-0.00534331 -0.00460986 0)
(0.0153148 -0.00394177 0)
(0.0336287 -0.00279127 0)
(0.0482906 -0.00137853 0)
(0.0583431 0.000118602 0)
(0.0634044 0.0014906 0)
(0.0636858 0.0025293 0)
(0.0599919 0.00310861 0)
(0.0534878 0.00322312 0)
(0.0454054 0.00298586 0)
(0.0368489 0.00254971 0)
(0.0286557 0.00204916 0)
(0.0213468 0.00157491 0)
(0.0151522 0.00117478 0)
(0.0100837 0.000863893 0)
(0.00603178 0.000631634 0)
(0.00290287 0.000436353 0)
(0.000796162 0.000193064 0)
(-8.187e-05 -8.7262e-05 0)
(0.000565093 -0.00182339 0)
(0.00437238 -0.00432087 0)
(0.00958083 -0.0051192 0)
(0.0146032 -0.00444156 0)
(0.0181603 -0.00299834 0)
(0.019766 -0.00145732 0)
(0.0194589 -0.000191711 0)
(0.0174501 0.000766721 0)
(0.0138245 0.00162696 0)
(0.00839289 0.00266783 0)
(0.000717952 0.00410659 0)
(-0.00975685 0.00604916 0)
(-0.0235608 0.0084997 0)
(-0.0410564 0.0113911 0)
(-0.0623238 0.014585 0)
(-0.0870552 0.0178555 0)
(-0.114492 0.0208821 0)
(-0.14344 0.0232723 0)
(-0.172375 0.0246173 0)
(-0.199617 0.0245598 0)
(-0.223509 0.0228528 0)
(-0.242571 0.0193965 0)
(-0.255603 0.0142553 0)
(-0.261749 0.00766134 0)
(-0.260533 4.47254e-06 0)
(-0.25189 -0.0081994 0)
(-0.236012 -0.0163796 0)
(-0.213348 -0.0239825 0)
(-0.184663 -0.0304451 0)
(-0.151045 -0.0352334 0)
(-0.113903 -0.0378846 0)
(-0.074936 -0.0380551 0)
(-0.0360521 -0.0355993 0)
(0.000813211 -0.0306993 0)
(0.0338145 -0.0238532 0)
(0.0612741 -0.0157867 0)
(0.0818739 -0.00732111 0)
(0.0948909 0.000661013 0)
(0.10019 0.00731605 0)
(0.0983818 0.012061 0)
(0.090921 0.0146973 0)
(0.0795932 0.015426 0)
(0.0662245 0.0147111 0)
(0.0524136 0.0131064 0)
(0.0393394 0.0111177 0)
(0.0276974 0.00911169 0)
(0.0177767 0.00725047 0)
(0.00968464 0.00543634 0)
(0.00372748 0.00334471 0)
(0.000329526 0.00091929 0)
(0.000785649 -0.00449863 0)
(0.00568755 -0.00969904 0)
(0.0117165 -0.0109194 0)
(0.016904 -0.00900586 0)
(0.0197593 -0.00542241 0)
(0.0197053 -0.00146696 0)
(0.0166596 0.00215653 0)
(0.0106197 0.00542853 0)
(0.00135975 0.00878853 0)
(-0.0116526 0.012803 0)
(-0.0291305 0.0178579 0)
(-0.0517019 0.0240302 0)
(-0.0796717 0.0311081 0)
(-0.11281 0.0386275 0)
(-0.15024 0.0459077 0)
(-0.190487 0.0521297 0)
(-0.231661 0.0564696 0)
(-0.271724 0.0582414 0)
(-0.308754 0.0569989 0)
(-0.341125 0.0525765 0)
(-0.367599 0.0450737 0)
(-0.387333 0.0348061 0)
(-0.399814 0.0222463 0)
(-0.404784 0.00797466 0)
(-0.402166 -0.00735894 0)
(-0.391938 -0.0230723 0)
(-0.374137 -0.0384549 0)
(-0.349031 -0.0527187 0)
(-0.317106 -0.0650286 0)
(-0.279127 -0.074545 0)
(-0.236186 -0.0804942 0)
(-0.189716 -0.0822666 0)
(-0.141477 -0.0795303 0)
(-0.0934738 -0.0723396 0)
(-0.0478184 -0.061241 0)
(-0.00650571 -0.04724 0)
(0.028741 -0.0316273 0)
(0.056562 -0.0158511 0)
(0.076264 -0.00120176 0)
(0.0875751 0.011124 0)
(0.0907549 0.0202175 0)
(0.0870558 0.0257139 0)
(0.0781827 0.0278443 0)
(0.0660251 0.0272976 0)
(0.0523834 0.0249724 0)
(0.0387193 0.0217242 0)
(0.0260341 0.0181236 0)
(0.0149687 0.0142414 0)
(0.00625707 0.0095854 0)
(0.000705357 0.00358812 0)
(0.000917695 -0.00772959 0)
(0.00606738 -0.0155955 0)
(0.0115432 -0.0165386 0)
(0.0151578 -0.0124493 0)
(0.0154077 -0.00572853 0)
(0.0117344 0.00170707 0)
(0.00391266 0.00895257 0)
(-0.00840679 0.0161172 0)
(-0.0258898 0.0239642 0)
(-0.0493521 0.0332444 0)
(-0.0794307 0.0442372 0)
(-0.116222 0.0566009 0)
(-0.159057 0.0694588 0)
(-0.20648 0.0815872 0)
(-0.25645 0.0916571 0)
(-0.306683 0.0984826 0)
(-0.355005 0.101216 0)
(-0.399608 0.0994376 0)
(-0.43916 0.093133 0)
(-0.472786 0.0826049 0)
(-0.499962 0.0683543 0)
(-0.520391 0.0509792 0)
(-0.533879 0.0311083 0)
(-0.540265 0.00937784 0)
(-0.53939 -0.013551 0)
(-0.531069 -0.0369489 0)
(-0.515171 -0.0599697 0)
(-0.491673 -0.0816491 0)
(-0.460678 -0.10092 0)
(-0.422505 -0.116642 0)
(-0.377774 -0.12768 0)
(-0.327497 -0.133031 0)
(-0.273144 -0.131999 0)
(-0.216652 -0.124379 0)
(-0.160334 -0.110602 0)
(-0.106671 -0.0917793 0)
(-0.0580135 -0.0696085 0)
(-0.0162332 -0.0460933 0)
(0.0174749 -0.023149 0)
(0.0425193 -0.00251969 0)
(0.058839 0.0145576 0)
(0.0666921 0.0271585 0)
(0.0671891 0.034907 0)
(0.0618849 0.0381438 0)
(0.0525688 0.0377721 0)
(0.0410322 0.0349271 0)
(0.0288266 0.0305666 0)
(0.0171875 0.0250327 0)
(0.00742058 0.017742 0)
(0.000862053 0.00736733 0)
(0.000999711 -0.0110201 0)
(0.00560883 -0.0208287 0)
(0.00922305 -0.0203456 0)
(0.00966682 -0.0128949 0)
(0.00560217 -0.00192488 0)
(-0.00348994 0.0101418 0)
(-0.0180749 0.0224053 0)
(-0.0389088 0.0353102 0)
(-0.0669256 0.0497961 0)
(-0.102776 0.0663879 0)
(-0.146358 0.0847115 0)
(-0.196592 0.103535 0)
(-0.251538 0.121126 0)
(-0.308746 0.135691 0)
(-0.365711 0.145744 0)
(-0.420252 0.150336 0)
(-0.470727 0.1491 0)
(-0.516053 0.142162 0)
(-0.555602 0.129978 0)
(-0.589051 0.11317 0)
(-0.616243 0.0924083 0)
(-0.637095 0.0683534 0)
(-0.651542 0.0416413 0)
(-0.659507 0.0128983 0)
(-0.660888 -0.0172234 0)
(-0.655549 -0.0479966 0)
(-0.643278 -0.0785642 0)
(-0.623798 -0.107916 0)
(-0.596817 -0.134872 0)
(-0.562102 -0.158078 0)
(-0.519602 -0.176058 0)
(-0.46961 -0.187346 0)
(-0.412936 -0.190684 0)
(-0.351053 -0.185301 0)
(-0.286165 -0.171174 0)
(-0.221109 -0.149233 0)
(-0.159051 -0.121367 0)
(-0.102994 -0.0901793 0)
(-0.0552265 -0.0585245 0)
(-0.0169411 -0.0289216 0)
(0.0117357 -0.00314791 0)
(0.0311847 0.0175938 0)
(0.0419585 0.0326331 0)
(0.0452605 0.0418151 0)
(0.04261 0.0456772 0)
(0.035733 0.0452871 0)
(0.0263924 0.0417539 0)
(0.0162467 0.0355982 0)
(0.00710816 0.0261578 0)
(0.000796286 0.0113838 0)
(0.00099547 -0.0139238 0)
(0.004158 -0.0242918 0)
(0.00457131 -0.0208701 0)
(0.000378846 -0.00871236 0)
(-0.0094923 0.00767912 0)
(-0.025605 0.0256236 0)
(-0.0487031 0.0445204 0)
(-0.0797667 0.0650429 0)
(-0.119509 0.0878465 0)
(-0.167744 0.112616 0)
(-0.223125 0.137894 0)
(-0.283346 0.161527 0)
(-0.345638 0.181292 0)
(-0.407309 0.195415 0)
(-0.466137 0.202826 0)
(-0.520541 0.20318 0)
(-0.569548 0.196704 0)
(-0.612652 0.183978 0)
(-0.649661 0.165747 0)
(-0.680579 0.142792 0)
(-0.705532 0.115869 0)
(-0.724719 0.0856783 0)
(-0.738363 0.0528685 0)
(-0.746659 0.0180458 0)
(-0.749713 -0.0181994 0)
(-0.747527 -0.0552526 0)
(-0.739905 -0.0924066 0)
(-0.726411 -0.128782 0)
(-0.706425 -0.163275 0)
(-0.679182 -0.194497 0)
(-0.643886 -0.220781 0)
(-0.599889 -0.240257 0)
(-0.546945 -0.251037 0)
(-0.485499 -0.251519 0)
(-0.416965 -0.240777 0)
(-0.343877 -0.218964 0)
(-0.269804 -0.187591 0)
(-0.198936 -0.149512 0)
(-0.135327 -0.108495 0)
(-0.0819809 -0.0684195 0)
(-0.0401915 -0.0324087 0)
(-0.00958566 -0.00232856 0)
(0.0110036 0.0210874 0)
(0.0227673 0.0375583 0)
(0.0271335 0.0472991 0)
(0.0257657 0.0510911 0)
(0.020454 0.0499278 0)
(0.0130718 0.044314 0)
(0.00574665 0.033475 0)
(0.000590711 0.0148936 0)
(0.00083926 -0.0158627 0)
(0.00147797 -0.0247614 0)
(-0.00260935 -0.0166784 0)
(-0.0127088 0.00147281 0)
(-0.0296049 0.0244341 0)
(-0.0539725 0.0496096 0)
(-0.0867112 0.0766909 0)
(-0.128579 0.106141 0)
(-0.179448 0.137709 0)
(-0.237887 0.169847 0)
(-0.301366 0.200072 0)
(-0.36685 0.225752 0)
(-0.431427 0.244771 0)
(-0.492733 0.255871 0)
(-0.549113 0.25866 0)
(-0.599575 0.253423 0)
(-0.643642 0.240866 0)
(-0.681219 0.221901 0)
(-0.712487 0.197501 0)
(-0.737835 0.168614 0)
(-0.757792 0.136108 0)
(-0.77295 0.100736 0)
(-0.783883 0.0631281 0)
(-0.791072 0.0238046 0)
(-0.794844 -0.0167926 0)
(-0.79535 -0.0582572 0)
(-0.792497 -0.100153 0)
(-0.785836 -0.141888 0)
(-0.77462 -0.182626 0)
(-0.75777 -0.221181 0)
(-0.733927 -0.255951 0)
(-0.701585 -0.284906 0)
(-0.659327 -0.305687 0)
(-0.606186 -0.315848 0)
(-0.542086 -0.313277 0)
(-0.468289 -0.296751 0)
(-0.387694 -0.266521 0)
(-0.304793 -0.224728 0)
(-0.225117 -0.175387 0)
(-0.154138 -0.123732 0)
(-0.0958598 -0.0749566 0)
(-0.0517467 -0.0328581 0)
(-0.0207879 0.000806769 0)
(-0.000776291 0.0258994 0)
(0.0102843 0.0427523 0)
(0.0142966 0.0519869 0)
(0.0131961 0.0543997 0)
(0.00900651 0.0503435 0)
(0.003998 0.0389212 0)
(0.00036195 0.0174902 0)
(0.00046402 -0.0160917 0)
(-0.00258143 -0.0209575 0)
(-0.0123018 -0.00659322 0)
(-0.0292602 0.0186904 0)
(-0.053987 0.0493111 0)
(-0.0872337 0.0829253 0)
(-0.129724 0.11918 0)
(-0.181461 0.157726 0)
(-0.241121 0.197008 0)
(-0.306113 0.234313 0)
(-0.373197 0.266593 0)
(-0.439207 0.291311 0)
(-0.501539 0.306906 0)
(-0.558353 0.312844 0)
(-0.608536 0.309419 0)
(-0.651584 0.297466 0)
(-0.687474 0.278113 0)
(-0.716567 0.252605 0)
(-0.739516 0.222173 0)
(-0.757165 0.187945 0)
(-0.770441 0.150874 0)
(-0.780247 0.111702 0)
(-0.787381 0.0709637 0)
(-0.792482 0.0290236 0)
(-0.79601 -0.0138773 0)
(-0.79823 -0.0575748 0)
(-0.799179 -0.101934 0)
(-0.798552 -0.146716 0)
(-0.795725 -0.191468 0)
(-0.789655 -0.235407 0)
(-0.778838 -0.277284 0)
(-0.761325 -0.315277 0)
(-0.734849 -0.346944 0)
(-0.697114 -0.369324 0)
(-0.646275 -0.379245 0)
(-0.58158 -0.373877 0)
(-0.504042 -0.351503 0)
(-0.416939 -0.312367 0)
(-0.32584 -0.259295 0)
(-0.237902 -0.197712 0)
(-0.160321 -0.134696 0)
(-0.0982806 -0.0770904 0)
(-0.0533491 -0.0294466 0)
(-0.0236065 0.00681306 0)
(-0.00558179 0.0324051 0)
(0.00359892 0.0482608 0)
(0.00644781 0.0552246 0)
(0.00528339 0.0535716 0)
(0.00248517 0.0423665 0)
(0.000209044 0.0191531 0)
(-0.000173355 -0.0137767 0)
(-0.00797504 -0.0118068 0)
(-0.0241401 0.0102348 0)
(-0.0484655 0.0435451 0)
(-0.0812688 0.0826874 0)
(-0.123186 0.125444 0)
(-0.174351 0.170883 0)
(-0.23369 0.217404 0)
(-0.298735 0.262154 0)
(-0.366149 0.30168 0)
(-0.43251 0.332921 0)
(-0.494915 0.353868 0)
(-0.55125 0.363718 0)
(-0.600217 0.362699 0)
(-0.641239 0.351756 0)
(-0.674348 0.332267 0)
(-0.700077 0.305806 0)
(-0.71933 0.273963 0)
(-0.73324 0.238191 0)
(-0.743002 0.199706 0)
(-0.749753 0.159429 0)
(-0.754482 0.117987 0)
(-0.757987 0.0757484 0)
(-0.760871 0.032887 0)
(-0.763586 -0.0105548 0)
(-0.766432 -0.0546191 0)
(-0.769533 -0.0994002 0)
(-0.772812 -0.144954 0)
(-0.775951 -0.191205 0)
(-0.778266 -0.237844 0)
(-0.778583 -0.284176 0)
(-0.775113 -0.328931 0)
(-0.765405 -0.370084 0)
(-0.746434 -0.404751 0)
(-0.714952 -0.429258 0)
(-0.668103 -0.439501 0)
(-0.604308 -0.431685 0)
(-0.524239 -0.403387 0)
(-0.43158 -0.354757 0)
(-0.333151 -0.289445 0)
(-0.237994 -0.214657 0)
(-0.155252 -0.139801 0)
(-0.0912798 -0.0737014 0)
(-0.0474282 -0.0215979 0)
(-0.0204489 0.0157548 0)
(-0.00548637 0.0400763 0)
(0.00119553 0.0527507 0)
(0.00266883 0.0543669 0)
(0.00160405 0.0441887 0)
(0.000183823 0.0201629 0)
(-0.00107439 -0.00815007 0)
(-0.0144262 0.00343884 0)
(-0.0373862 0.0341837 0)
(-0.0690691 0.0760923 0)
(-0.10953 0.124185 0)
(-0.159021 0.176001 0)
(-0.216797 0.229564 0)
(-0.280696 0.281914 0)
(-0.347442 0.329234 0)
(-0.413424 0.36786 0)
(-0.475413 0.395161 0)
(-0.53097 0.409896 0)
(-0.578548 0.412101 0)
(-0.617452 0.40278 0)
(-0.647741 0.383557 0)
(-0.670103 0.356379 0)
(-0.685685 0.323246 0)
(-0.695883 0.285997 0)
(-0.702133 0.246151 0)
(-0.705736 0.204836 0)
(-0.70777 0.162793 0)
(-0.70906 0.120436 0)
(-0.710193 0.0779274 0)
(-0.711572 0.0352657 0)
(-0.713504 -0.00765338 0)
(-0.716238 -0.0509887 0)
(-0.719915 -0.0949355 0)
(-0.724647 -0.139697 0)
(-0.730447 -0.185445 0)
(-0.73713 -0.232256 0)
(-0.74415 -0.279995 0)
(-0.750394 -0.328121 0)
(-0.753961 -0.375426 0)
(-0.752015 -0.419742 0)
(-0.740819 -0.457715 0)
(-0.71611 -0.484822 0)
(-0.673891 -0.495797 0)
(-0.611623 -0.485596 0)
(-0.529591 -0.450875 0)
(-0.431986 -0.391697 0)
(-0.32713 -0.312851 0)
(-0.226238 -0.223919 0)
(-0.140501 -0.137257 0)
(-0.0771409 -0.0638897 0)
(-0.0366106 -0.00936568 0)
(-0.013795 0.0267612 0)
(-0.00263521 0.047116 0)
(0.0012989 0.0532267 0)
(0.00144534 0.0450037 0)
(0.000288146 0.0209397 0)
(-0.00218157 0.00133457 0)
(-0.0214361 0.0250662 0)
(-0.0510376 0.0651139 0)
(-0.0895207 0.115798 0)
(-0.13657 0.172668 0)
(-0.191827 0.232611 0)
(-0.25359 0.292371 0)
(-0.318851 0.347822 0)
(-0.383941 0.394658 0)
(-0.445343 0.429464 0)
(-0.500253 0.450335 0)
(-0.546817 0.456932 0)
(-0.584157 0.450197 0)
(-0.612302 0.431959 0)
(-0.632052 0.404546 0)
(-0.64477 0.370419 0)
(-0.652107 0.331859 0)
(-0.655724 0.290738 0)
(-0.657072 0.248415 0)
(-0.657279 0.205744 0)
(-0.65713 0.163171 0)
(-0.657122 0.120846 0)
(-0.65753 0.07874 0)
(-0.658495 0.036725 0)
(-0.660126 -0.0053686 0)
(-0.662566 -0.0477173 0)
(-0.66592 -0.0905008 0)
(-0.670372 -0.133918 0)
(-0.676142 -0.178202 0)
(-0.68343 -0.223611 0)
(-0.692303 -0.270384 0)
(-0.702494 -0.318616 0)
(-0.713118 -0.368019 0)
(-0.722336 -0.417551 0)
(-0.727051 -0.464961 0)
(-0.722853 -0.506402 0)
(-0.704401 -0.536332 0)
(-0.66644 -0.548023 0)
(-0.605382 -0.534864 0)
(-0.52117 -0.49243 0)
(-0.418758 -0.420876 0)
(-0.308371 -0.326758 0)
(-0.203731 -0.222948 0)
(-0.11799 -0.125467 0)
(-0.0584733 -0.0474373 0)
(-0.023658 0.00619347 0)
(-0.00619833 0.0377229 0)
(0.000674728 0.0503627 0)
(0.00180826 0.0453373 0)
(0.000485704 0.0218665 0)
(-0.00335943 0.0149097 0)
(-0.0283575 0.0528725 0)
(-0.0639746 0.102399 0)
(-0.108212 0.161577 0)
(-0.160273 0.226414 0)
(-0.219084 0.292847 0)
(-0.282119 0.356362 0)
(-0.345863 0.412035 0)
(-0.406613 0.455534 0)
(-0.461205 0.484043 0)
(-0.507414 0.496579 0)
(-0.544089 0.493818 0)
(-0.571133 0.477677 0)
(-0.589379 0.450834 0)
(-0.60035 0.416245 0)
(-0.605922 0.376698 0)
(-0.607977 0.33449 0)
(-0.60812 0.29126 0)
(-0.607537 0.248 0)
(-0.606976 0.205171 0)
(-0.606824 0.162887 0)
(-0.607225 0.121062 0)
(-0.608176 0.0795304 0)
(-0.609612 0.0381132 0)
(-0.611488 -0.00335317 0)
(-0.613853 -0.0449976 0)
(-0.616759 -0.0869257 0)
(-0.62035 -0.129246 0)
(-0.624876 -0.172118 0)
(-0.630675 -0.215776 0)
(-0.638144 -0.260558 0)
(-0.647633 -0.306881 0)
(-0.659236 -0.355126 0)
(-0.672422 -0.40535 0)
(-0.685547 -0.456783 0)
(-0.695365 -0.507157 0)
(-0.69681 -0.55205 0)
(-0.683394 -0.584654 0)
(-0.648483 -0.5964 0)
(-0.587431 -0.578771 0)
(-0.500062 -0.526216 0)
(-0.392589 -0.439498 0)
(-0.277748 -0.328038 0)
(-0.172102 -0.209309 0)
(-0.0903018 -0.103619 0)
(-0.0383341 -0.0253232 0)
(-0.0113469 0.0228666 0)
(-0.0001603 0.0453352 0)
(0.00229474 0.0453332 0)
(0.000720381 0.023148 0)
(-0.00444407 0.0324218 0)
(-0.034538 0.0861918 0)
(-0.0751405 0.14498 0)
(-0.123715 0.211923 0)
(-0.178924 0.283385 0)
(-0.239013 0.354234 0)
(-0.300873 0.418909 0)
(-0.360813 0.472107 0)
(-0.415372 0.509856 0)
(-0.461913 0.5302 0)
(-0.498911 0.533236 0)
(-0.526015 0.520745 0)
(-0.543964 0.495648 0)
(-0.554339 0.461385 0)
(-0.559189 0.421325 0)
(-0.560602 0.378286 0)
(-0.560353 0.334281 0)
(-0.559708 0.290491 0)
(-0.559405 0.247423 0)
(-0.559755 0.205142 0)
(-0.560786 0.163485 0)
(-0.562388 0.122221 0)
(-0.564403 0.0811338 0)
(-0.566676 0.0400553 0)
(-0.569103 -0.00112973 0)
(-0.571686 -0.0424857 0)
(-0.574444 -0.0840441 0)
(-0.577438 -0.125823 0)
(-0.58083 -0.167867 0)
(-0.584884 -0.210285 0)
(-0.590001 -0.253303 0)
(-0.596724 -0.297322 0)
(-0.605668 -0.342942 0)
(-0.617309 -0.390871 0)
(-0.631544 -0.441591 0)
(-0.647029 -0.494698 0)
(-0.66043 -0.547913 0)
(-0.665992 -0.596087 0)
(-0.655951 -0.630768 0)
(-0.622212 -0.64105 0)
(-0.559192 -0.616177 0)
(-0.467094 -0.549709 0)
(-0.354216 -0.444083 0)
(-0.236626 -0.313372 0)
(-0.13388 -0.181292 0)
(-0.0609122 -0.0724686 0)
(-0.0200658 -0.00024423 0)
(-0.00227533 0.036908 0)
(0.00246657 0.0446059 0)
(0.00093957 0.0247445 0)
(-0.00528723 0.0533081 0)
(-0.0394172 0.123965 0)
(-0.083678 0.191485 0)
(-0.134966 0.265099 0)
(-0.191405 0.341504 0)
(-0.250693 0.414546 0)
(-0.309413 0.47793 0)
(-0.363971 0.526361 0)
(-0.411339 0.556545 0)
(-0.449529 0.567582 0)
(-0.477795 0.560764 0)
(-0.496614 0.539022 0)
(-0.507484 0.506197 0)
(-0.51253 0.466272 0)
(-0.514016 0.422711 0)
(-0.513897 0.378032 0)
(-0.513563 0.333719 0)
(-0.513786 0.290387 0)
(-0.514836 0.248074 0)
(-0.516665 0.206539 0)
(-0.51908 0.165468 0)
(-0.521865 0.124592 0)
(-0.524838 0.0837187 0)
(-0.52786 0.0427307 0)
(-0.530842 0.00156809 0)
(-0.533788 -0.0397851 0)
(-0.536718 -0.0813163 0)
(-0.539622 -0.122999 0)
(-0.542559 -0.164801 0)
(-0.545641 -0.206712 0)
(-0.549091 -0.248788 0)
(-0.553306 -0.291227 0)
(-0.558906 -0.334474 0)
(-0.566725 -0.379307 0)
(-0.577617 -0.426785 0)
(-0.591949 -0.47789 0)
(-0.608718 -0.532639 0)
(-0.624481 -0.588685 0)
(-0.632663 -0.639834 0)
(-0.62404 -0.6754 0)
(-0.589004 -0.681515 0)
(-0.521403 -0.64499 0)
(-0.422722 -0.559262 0)
(-0.304571 -0.430418 0)
(-0.187248 -0.27981 0)
(-0.092829 -0.138974 0)
(-0.0339669 -0.0352244 0)
(-0.0065099 0.0231363 0)
(0.00200849 0.0422856 0)
(0.00111583 0.0264057 0)
(-0.00576775 0.0766622 0)
(-0.0425833 0.164857 0)
(-0.0890149 0.240366 0)
(-0.141351 0.319334 0)
(-0.197238 0.398874 0)
(-0.254011 0.471987 0)
(-0.308196 0.531979 0)
(-0.356497 0.573905 0)
(-0.396443 0.595383 0)
(-0.426764 0.596717 0)
(-0.447498 0.580457 0)
(-0.459874 0.550619 0)
(-0.465949 0.511764 0)
(-0.468091 0.468099 0)
(-0.468445 0.422833 0)
(-0.468572 0.377923 0)
(-0.469337 0.334206 0)
(-0.471025 0.291754 0)
(-0.473544 0.250258 0)
(-0.476646 0.209318 0)
(-0.480072 0.168599 0)
(-0.483623 0.127876 0)
(-0.487177 0.0870246 0)
(-0.490656 0.0459841 0)
(-0.494025 0.00473635 0)
(-0.497316 -0.0367116 0)
(-0.500556 -0.0783369 0)
(-0.503713 -0.120112 0)
(-0.50678 -0.161986 0)
(-0.509754 -0.203894 0)
(-0.512672 -0.245777 0)
(-0.515674 -0.287631 0)
(-0.519099 -0.32961 0)
(-0.523596 -0.37218 0)
(-0.530176 -0.41629 0)
(-0.540059 -0.463394 0)
(-0.554085 -0.515039 0)
(-0.571572 -0.571684 0)
(-0.58883 -0.630707 0)
(-0.598179 -0.684291 0)
(-0.588664 -0.718643 0)
(-0.54926 -0.71621 0)
(-0.474017 -0.661565 0)
(-0.367163 -0.549794 0)
(-0.245229 -0.393951 0)
(-0.133303 -0.226057 0)
(-0.0540342 -0.0858533 0)
(-0.0133548 0.00160489 0)
(0.00076899 0.0371926 0)
(0.00125302 0.027773 0)
(-0.00581029 0.10135 0)
(-0.0438046 0.207389 0)
(-0.0908885 0.290047 0)
(-0.142702 0.372979 0)
(-0.196518 0.453915 0)
(-0.249499 0.525259 0)
(-0.298312 0.580241 0)
(-0.340096 0.614531 0)
(-0.372999 0.626838 0)
(-0.396469 0.618751 0)
(-0.411256 0.594048 0)
(-0.419156 0.557668 0)
(-0.422515 0.514593 0)
(-0.423635 0.468903 0)
(-0.424291 0.423268 0)
(-0.425522 0.378946 0)
(-0.427691 0.336151 0)
(-0.430715 0.294544 0)
(-0.434311 0.253633 0)
(-0.438185 0.213001 0)
(-0.442121 0.172377 0)
(-0.446001 0.131626 0)
(-0.449785 0.0906909 0)
(-0.453461 0.0495577 0)
(-0.457034 0.00822754 0)
(-0.460566 -0.0332907 0)
(-0.464096 -0.0749838 0)
(-0.467596 -0.116845 0)
(-0.47104 -0.158841 0)
(-0.47438 -0.200915 0)
(-0.477551 -0.242977 0)
(-0.480507 -0.284923 0)
(-0.483289 -0.326682 0)
(-0.486154 -0.368346 0)
(-0.489749 -0.410394 0)
(-0.495242 -0.453966 0)
(-0.504217 -0.500975 0)
(-0.517977 -0.553619 0)
(-0.536046 -0.612741 0)
(-0.554169 -0.674998 0)
(-0.563084 -0.729954 0)
(-0.549817 -0.759473 0)
(-0.502335 -0.741703 0)
(-0.41633 -0.660101 0)
(-0.30092 -0.514899 0)
(-0.179243 -0.331147 0)
(-0.0804908 -0.154844 0)
(-0.023157 -0.0304832 0)
(-0.0012852 0.0279961 0)
(0.00137057 0.0284694 0)
(-0.00539182 0.126129 0)
(-0.0430257 0.250053 0)
(-0.0893191 0.339039 0)
(-0.139231 0.424612 0)
(-0.189777 0.505419 0)
(-0.238119 0.573554 0)
(-0.281209 0.622441 0)
(-0.316693 0.648566 0)
(-0.343342 0.651834 0)
(-0.361252 0.63513 0)
(-0.371733 0.603338 0)
(-0.376912 0.562066 0)
(-0.379147 0.516388 0)
(-0.380435 0.469959 0)
(-0.38206 0.424744 0)
(-0.384556 0.381302 0)
(-0.387907 0.339351 0)
(-0.39183 0.298317 0)
(-0.396004 0.257676 0)
(-0.400191 0.217085 0)
(-0.404266 0.17638 0)
(-0.408201 0.135507 0)
(-0.412019 0.0944634 0)
(-0.41575 0.0532577 0)
(-0.419418 0.0118924 0)
(-0.423097 -0.0296334 0)
(-0.426837 -0.0713209 0)
(-0.430622 -0.113187 0)
(-0.434429 -0.155227 0)
(-0.438216 -0.197418 0)
(-0.441902 -0.2397 0)
(-0.445371 -0.281964 0)
(-0.4485 -0.324057 0)
(-0.451231 -0.365837 0)
(-0.453736 -0.407327 0)
(-0.456656 -0.449027 0)
(-0.461333 -0.492329 0)
(-0.469736 -0.539735 0)
(-0.483593 -0.594189 0)
(-0.502383 -0.656711 0)
(-0.520723 -0.722342 0)
(-0.5271 -0.776435 0)
(-0.506378 -0.79497 0)
(-0.446604 -0.751815 0)
(-0.347514 -0.632331 0)
(-0.225852 -0.448036 0)
(-0.112284 -0.242502 0)
(-0.0363919 -0.0761208 0)
(-0.00422772 0.0131966 0)
(0.00145991 0.0280858 0)
(-0.0045372 0.149761 0)
(-0.0403398 0.291413 0)
(-0.0845497 0.386021 0)
(-0.131422 0.47309 0)
(-0.177828 0.552556 0)
(-0.221063 0.616489 0)
(-0.258456 0.65872 0)
(-0.288174 0.676685 0)
(-0.309561 0.67152 0)
(-0.323237 0.647328 0)
(-0.33087 0.609909 0)
(-0.334682 0.565251 0)
(-0.336816 0.518222 0)
(-0.33884 0.471856 0)
(-0.341549 0.427377 0)
(-0.345081 0.384751 0)
(-0.349202 0.343374 0)
(-0.353579 0.302596 0)
(-0.357946 0.26196 0)
(-0.362162 0.221243 0)
(-0.366194 0.180375 0)
(-0.370078 0.139366 0)
(-0.373872 0.098237 0)
(-0.377622 0.0570003 0)
(-0.381352 0.0156491 0)
(-0.38513 -0.025831 0)
(-0.389015 -0.067453 0)
(-0.392998 -0.109252 0)
(-0.397065 -0.151246 0)
(-0.401193 -0.193444 0)
(-0.405326 -0.23583 0)
(-0.409364 -0.278346 0)
(-0.41315 -0.320863 0)
(-0.416494 -0.363179 0)
(-0.419249 -0.405072 0)
(-0.421513 -0.446495 0)
(-0.42395 -0.488016 0)
(-0.428134 -0.531411 0)
(-0.436471 -0.579981 0)
(-0.451017 -0.637495 0)
(-0.470739 -0.704592 0)
(-0.488225 -0.773063 0)
(-0.488952 -0.821684 0)
(-0.456035 -0.819108 0)
(-0.379879 -0.73673 0)
(-0.267813 -0.56824 0)
(-0.14685 -0.345879 0)
(-0.0533749 -0.137519 0)
(-0.00822391 -0.00883703 0)
(0.00147307 0.0261665 0)
(-0.0033092 0.171102 0)
(-0.0359494 0.330172 0)
(-0.0769738 0.429885 0)
(-0.11992 0.517554 0)
(-0.161614 0.594823 0)
(-0.199574 0.654005 0)
(-0.23155 0.689495 0)
(-0.256203 0.699736 0)
(-0.273353 0.687057 0)
(-0.283983 0.656646 0)
(-0.289916 0.61498 0)
(-0.293263 0.568155 0)
(-0.295822 0.520617 0)
(-0.298707 0.474698 0)
(-0.302311 0.430952 0)
(-0.306521 0.388909 0)
(-0.311026 0.347806 0)
(-0.315533 0.30703 0)
(-0.319872 0.266241 0)
(-0.323998 0.225328 0)
(-0.32794 0.184294 0)
(-0.331767 0.143177 0)
(-0.33555 0.102005 0)
(-0.339333 0.0607783 0)
(-0.343128 0.0194775 0)
(-0.346993 -0.0219243 0)
(-0.350992 -0.0634475 0)
(-0.35512 -0.105139 0)
(-0.359363 -0.147031 0)
(-0.363714 -0.189152 0)
(-0.368147 -0.231523 0)
(-0.372598 -0.274136 0)
(-0.376953 -0.316931 0)
(-0.381024 -0.359759 0)
(-0.384559 -0.402359 0)
(-0.387336 -0.444417 0)
(-0.389404 -0.485839 0)
(-0.39152 -0.527355 0)
(-0.395596 -0.571373 0)
(-0.404545 -0.622303 0)
(-0.420517 -0.684657 0)
(-0.441108 -0.757419 0)
(-0.455629 -0.826309 0)
(-0.446059 -0.860501 0)
(-0.395459 -0.821177 0)
(-0.300581 -0.682916 0)
(-0.180648 -0.459309 0)
(-0.073558 -0.21503 0)
(-0.0135195 -0.0398876 0)
(0.00138845 0.0222312 0)
(-0.00179681 0.189176 0)
(-0.030126 0.365216 0)
(-0.067065 0.469747 0)
(-0.105436 0.557409 0)
(-0.14209 0.631981 0)
(-0.174822 0.686271 0)
(-0.201805 0.715327 0)
(-0.222134 0.718589 0)
(-0.23598 0.699488 0)
(-0.244523 0.664109 0)
(-0.249561 0.619376 0)
(-0.252952 0.571274 0)
(-0.256101 0.523707 0)
(-0.259722 0.478329 0)
(-0.263924 0.435148 0)
(-0.268478 0.393421 0)
(-0.273084 0.352353 0)
(-0.277537 0.311423 0)
(-0.281758 0.270417 0)
(-0.285769 0.22931 0)
(-0.289634 0.188145 0)
(-0.293431 0.146966 0)
(-0.297229 0.105791 0)
(-0.301063 0.0646084 0)
(-0.304933 0.0233834 0)
(-0.308884 -0.0179206 0)
(-0.312988 -0.0593278 0)
(-0.317243 -0.100895 0)
(-0.321625 -0.142659 0)
(-0.326139 -0.184663 0)
(-0.330771 -0.226945 0)
(-0.335491 -0.269533 0)
(-0.340232 -0.312429 0)
(-0.344865 -0.355568 0)
(-0.34917 -0.398768 0)
(-0.35284 -0.441691 0)
(-0.355587 -0.483923 0)
(-0.357464 -0.525364 0)
(-0.359437 -0.567117 0)
(-0.363926 -0.612639 0)
(-0.374378 -0.667807 0)
(-0.39247 -0.737285 0)
(-0.412997 -0.815722 0)
(-0.420585 -0.87841 0)
(-0.394368 -0.882223 0)
(-0.321266 -0.784567 0)
(-0.210116 -0.575738 0)
(-0.0953458 -0.306619 0)
(-0.0203382 -0.0816279 0)
(0.00124821 0.0157967 0)
(-0.000104265 0.203204 0)
(-0.0231763 0.395623 0)
(-0.0553214 0.504936 0)
(-0.0886702 0.592277 0)
(-0.120143 0.663985 0)
(-0.147825 0.713585 0)
(-0.17029 0.736814 0)
(-0.186984 0.734041 0)
(-0.198302 0.709656 0)
(-0.205464 0.670448 0)
(-0.210105 0.623582 0)
(-0.213756 0.574787 0)
(-0.217444 0.527404 0)
(-0.221574 0.482492 0)
(-0.226088 0.439663 0)
(-0.230731 0.39803 0)
(-0.235268 0.356841 0)
(-0.23958 0.315692 0)
(-0.243661 0.274469 0)
(-0.247569 0.233203 0)
(-0.25138 0.191954 0)
(-0.255167 0.150757 0)
(-0.258989 0.109614 0)
(-0.262878 0.068501 0)
(-0.266826 0.0273722 0)
(-0.270858 -0.0138179 0)
(-0.275064 -0.0550951 0)
(-0.279447 -0.0965258 0)
(-0.283968 -0.138152 0)
(-0.288632 -0.18002 0)
(-0.293432 -0.222179 0)
(-0.298353 -0.264677 0)
(-0.303361 -0.307552 0)
(-0.308381 -0.350811 0)
(-0.313265 -0.394374 0)
(-0.317757 -0.438003 0)
(-0.321489 -0.481253 0)
(-0.324134 -0.523606 0)
(-0.325833 -0.565083 0)
(-0.327948 -0.607547 0)
(-0.333625 -0.656141 0)
(-0.346672 -0.7184 0)
(-0.36707 -0.797229 0)
(-0.384733 -0.877925 0)
(-0.378863 -0.919861 0)
(-0.328934 -0.868084 0)
(-0.232504 -0.688161 0)
(-0.116586 -0.408299 0)
(-0.0286797 -0.135204 0)
(0.00111468 0.00635236 0)
(0.00165879 0.212632 0)
(-0.0154168 0.42066 0)
(-0.0422251 0.534961 0)
(-0.0702666 0.621952 0)
(-0.0965434 0.690915 0)
(-0.119417 0.736299 0)
(-0.137822 0.754516 0)
(-0.151467 0.746755 0)
(-0.160849 0.718191 0)
(-0.167102 0.676131 0)
(-0.171607 0.627825 0)
(-0.175548 0.578684 0)
(-0.179624 0.531525 0)
(-0.184025 0.486935 0)
(-0.188619 0.444261 0)
(-0.193184 0.402569 0)
(-0.197559 0.361184 0)
(-0.201698 0.319808 0)
(-0.205639 0.278402 0)
(-0.209456 0.237025 0)
(-0.213221 0.195737 0)
(-0.216998 0.154556 0)
(-0.220838 0.113473 0)
(-0.224773 0.0724517 0)
(-0.228789 0.0314397 0)
(-0.232894 -0.00961758 0)
(-0.237198 -0.050746 0)
(-0.241714 -0.0920243 0)
(-0.246385 -0.133498 0)
(-0.251214 -0.175219 0)
(-0.256193 -0.217239 0)
(-0.261312 -0.259615 0)
(-0.266551 -0.302406 0)
(-0.271869 -0.345661 0)
(-0.277178 -0.389382 0)
(-0.282303 -0.433454 0)
(-0.286937 -0.477546 0)
(-0.290655 -0.521066 0)
(-0.29313 -0.56343 0)
(-0.294744 -0.605058 0)
(-0.29754 -0.649282 0)
(-0.305559 -0.703746 0)
(-0.322246 -0.776925 0)
(-0.343614 -0.865279 0)
(-0.352495 -0.936816 0)
(-0.324391 -0.931077 0)
(-0.246296 -0.790716 0)
(-0.135229 -0.515031 0)
(-0.0381547 -0.200391 0)
(0.000965877 -0.00656998 0)
(0.00338648 0.217149 0)
(-0.00715632 0.439744 0)
(-0.0282244 0.559479 0)
(-0.0507877 0.646347 0)
(-0.07193 0.712915 0)
(-0.0902469 0.754756 0)
(-0.104988 0.76891 0)
(-0.116041 0.757238 0)
(-0.123904 0.725523 0)
(-0.129532 0.681422 0)
(-0.134 0.63217 0)
(-0.138159 0.582858 0)
(-0.142445 0.535869 0)
(-0.146914 0.491446 0)
(-0.151422 0.44878 0)
(-0.155802 0.406943 0)
(-0.159967 0.365342 0)
(-0.163919 0.323766 0)
(-0.16772 0.282221 0)
(-0.171444 0.240779 0)
(-0.175156 0.199487 0)
(-0.178908 0.158353 0)
(-0.182748 0.117352 0)
(-0.18671 0.0764447 0)
(-0.19078 0.0355736 0)
(-0.194943 -0.00532472 0)
(-0.199335 -0.046279 0)
(-0.203991 -0.0873802 0)
(-0.208826 -0.128681 0)
(-0.213841 -0.170236 0)
(-0.219026 -0.212101 0)
(-0.22437 -0.254335 0)
(-0.229858 -0.297008 0)
(-0.235464 -0.34019 0)
(-0.241135 -0.383937 0)
(-0.246762 -0.428232 0)
(-0.252126 -0.472886 0)
(-0.256858 -0.517418 0)
(-0.260484 -0.561061 0)
(-0.262772 -0.60331 0)
(-0.264604 -0.645591 0)
(-0.269072 -0.693855 0)
(-0.280957 -0.75878 0)
(-0.301433 -0.846428 0)
(-0.319217 -0.937477 0)
(-0.309663 -0.973617 0)
(-0.251243 -0.879287 0)
(-0.149794 -0.621688 0)
(-0.0480343 -0.27543 0)
(0.000662152 -0.0234137 0)
(0.00493736 0.216569 0)
(0.00130009 0.452533 0)
(-0.0137185 0.578234 0)
(-0.0307138 0.665449 0)
(-0.0468153 0.730152 0)
(-0.0608021 0.769256 0)
(-0.0721891 0.780368 0)
(-0.0809756 0.765852 0)
(-0.087584 0.731918 0)
(-0.0927298 0.686438 0)
(-0.0971634 0.636583 0)
(-0.101429 0.58717 0)
(-0.10576 0.540259 0)
(-0.110139 0.495868 0)
(-0.114445 0.453111 0)
(-0.118575 0.411091 0)
(-0.122498 0.369291 0)
(-0.126251 0.327555 0)
(-0.129901 0.285918 0)
(-0.133517 0.244451 0)
(-0.137156 0.203189 0)
(-0.140861 0.162125 0)
(-0.144677 0.121229 0)
(-0.148645 0.0804596 0)
(-0.152753 0.039759 0)
(-0.156954 -0.000943602 0)
(-0.161421 -0.0416943 0)
(-0.166219 -0.0825836 0)
(-0.171229 -0.123682 0)
(-0.17645 -0.165045 0)
(-0.18187 -0.206731 0)
(-0.187475 -0.248802 0)
(-0.193251 -0.291328 0)
(-0.199177 -0.334395 0)
(-0.205219 -0.378089 0)
(-0.211305 -0.422459 0)
(-0.217287 -0.467434 0)
(-0.222889 -0.512692 0)
(-0.227671 -0.557533 0)
(-0.231153 -0.601047 0)
(-0.233387 -0.64323 0)
(-0.236164 -0.6877 0)
(-0.243928 -0.744525 0)
(-0.261045 -0.826053 0)
(-0.282671 -0.926798 0)
(-0.2874 -0.997631 0)
(-0.248113 -0.951626 0)
(-0.159547 -0.723778 0)
(-0.057487 -0.357564 0)
(-5.46486e-06 -0.0446029 0)
(0.00615684 0.211121 0)
(0.00958946 0.458586 0)
(0.000968556 0.591134 0)
(-0.0104447 0.679268 0)
(-0.0216051 0.742778 0)
(-0.0314377 0.78003 0)
(-0.0396843 0.789147 0)
(-0.0464063 0.772821 0)
(-0.0519004 0.737516 0)
(-0.0566097 0.691207 0)
(-0.0609589 0.640991 0)
(-0.0652169 0.591487 0)
(-0.0694598 0.544554 0)
(-0.073635 0.500088 0)
(-0.0776603 0.45718 0)
(-0.0814931 0.414975 0)
(-0.0851484 0.373008 0)
(-0.0886807 0.331161 0)
(-0.0921573 0.289476 0)
(-0.09564 0.248019 0)
(-0.0991785 0.206815 0)