/*--------------------------------*- C++ -*----------------------------------*\
  =========                 |
  \\      /  F ield         | OpenFOAM: The Open Source CFD Toolbox
   \\    /   O peration     | Website:  https://openfoam.org
    \\  /    A nd           | Version:  7
     \\/     M anipulation  |
\*---------------------------------------------------------------------------*/
FoamFile
{
    version     2.0;
    format      ascii;
    class       volScalarField;
    location    "1400";
    object      p;
}
// * * * * * * * * * * * * * * * * * * * * * * * * * * * * * * * * * * * * * //

dimensions      [0 2 -2 0 0 0 0];

internalField   nonuniform List<scalar> 
2500
(
1.96838e-07
7.11511e-05
-8.76629e-06
-0.00030759
-0.000781999
-0.00136956
-0.00203008
-0.00275904
-0.00358214
-0.00454003
-0.00567278
-0.00701028
-0.00856944
-0.01035
-0.0123285
-0.0144508
-0.0166247
-0.0187188
-0.020568
-0.0219903
-0.0228108
-0.0228904
-0.0221536
-0.0206169
-0.0184063
-0.0157479
-0.0129634
-0.01047
-0.00872971
-0.00818012
-0.00915408
-0.0117882
-0.0159701
-0.0214041
-0.0276306
-0.034088
-0.0402477
-0.0457088
-0.0502405
-0.0537677
-0.0563406
-0.0580941
-0.0592027
-0.0598425
-0.0601653
-0.0602873
-0.0602864
-0.060205
-0.0600657
-0.0599266
-6.89677e-05
3.85672e-06
-7.99519e-05
-0.000376419
-0.000828824
-0.00137301
-0.00197384
-0.00263276
-0.00337837
-0.00425097
-0.0052894
-0.00652359
-0.00797425
-0.00964911
-0.0115365
-0.0135998
-0.0157679
-0.0179293
-0.0199314
-0.0215903
-0.0227136
-0.0231316
-0.0227304
-0.0214858
-0.0194929
-0.0169687
-0.0142503
-0.0117733
-0.0100182
-0.009442
-0.0103931
-0.0130305
-0.0172701
-0.0227622
-0.0290045
-0.0354489
-0.0415412
-0.0468406
-0.0511078
-0.0543161
-0.0565834
-0.0580912
-0.059033
-0.0595816
-0.0598731
-0.0600048
-0.0600386
-0.060004
-0.0599025
-0.0597708
-1.89692e-05
4.97227e-05
-5.72002e-05
-0.000379684
-0.00083211
-0.00133872
-0.00186932
-0.00243674
-0.00308202
-0.00385271
-0.00479292
-0.00594302
-0.00734103
-0.00902141
-0.0110041
-0.013278
-0.0157828
-0.0183969
-0.0209378
-0.0231791
-0.0248816
-0.0258313
-0.0258768
-0.0249671
-0.0231945
-0.0207863
-0.0180795
-0.0155079
-0.0135641
-0.0127285
-0.0133827
-0.0157248
-0.0197098
-0.0250358
-0.0311938
-0.0375626
-0.0435644
-0.0487569
-0.0528599
-0.0558079
-0.0577312
-0.0588753
-0.0594939
-0.0597916
-0.0599131
-0.0599479
-0.0599427
-0.0599071
-0.0598113
-0.0596669
0.000228251
0.000266307
0.000101852
-0.000279467
-0.000755283
-0.00123663
-0.00170254
-0.00218515
-0.00274548
-0.00345461
-0.00438592
-0.00561887
-0.00723831
-0.00932122
-0.0119105
-0.014986
-0.0184447
-0.0220982
-0.0256907
-0.0289317
-0.0315366
-0.0332658
-0.0339548
-0.0335401
-0.0320935
-0.0298174
-0.0270244
-0.0241357
-0.0216463
-0.0200625
-0.0198219
-0.021204
-0.0242578
-0.02877
-0.03429
-0.0402147
-0.0459219
-0.0508925
-0.0548313
-0.0576485
-0.0593956
-0.0602842
-0.0605956
-0.0605898
-0.0604512
-0.0602896
-0.0601554
-0.0600495
-0.0599195
-0.0597546
0.000707561
0.00067744
0.000418243
-4.39483e-05
-0.00055517
-0.00102908
-0.00146017
-0.00190843
-0.00247453
-0.00328045
-0.00446318
-0.00617059
-0.00854192
-0.0116728
-0.0155774
-0.0201652
-0.0252396
-0.0305197
-0.0356753
-0.0403654
-0.044275
-0.047147
-0.0488036
-0.0491599
-0.0482452
-0.0462052
-0.0433056
-0.0399316
-0.0365548
-0.0336903
-0.0318307
-0.031364
-0.0324918
-0.0351706
-0.0391001
-0.0437751
-0.0485955
-0.0530005
-0.0565903
-0.0591777
-0.0607964
-0.0616029
-0.0617883
-0.061603
-0.0612662
-0.0609209
-0.060641
-0.0604394
-0.0602631
-0.0600862
0.00146274
0.0013287
0.000949308
0.000397676
-0.000168499
-0.000675035
-0.0011466
-0.00169603
-0.00249257
-0.00374238
-0.0056711
-0.00849279
-0.0123631
-0.0173332
-0.0233231
-0.0301249
-0.037429
-0.0448642
-0.0520372
-0.0585676
-0.0641182
-0.0684189
-0.071282
-0.0726077
-0.0723942
-0.0707266
-0.0678032
-0.0639439
-0.0595563
-0.0551164
-0.0511275
-0.0480603
-0.0462803
-0.0459738
-0.0470948
-0.0493597
-0.0523057
-0.0554032
-0.0581851
-0.0603419
-0.0617532
-0.0624677
-0.0626495
-0.0624613
-0.0620748
-0.061649
-0.0612833
-0.0610149
-0.0608095
-0.0606381
0.00253224
0.00226942
0.00176062
0.00110909
0.00045214
-0.00016712
-0.000836819
-0.00175261
-0.00318395
-0.00544094
-0.00882553
-0.013567
-0.0197622
-0.0273444
-0.036089
-0.0456475
-0.0555957
-0.0654805
-0.0748597
-0.083333
-0.0905657
-0.0963025
-0.10037
-0.102677
-0.103219
-0.102048
-0.0992888
-0.0951752
-0.0900104
-0.0841684
-0.0780807
-0.0722128
-0.0670227
-0.0629
-0.0600969
-0.0586699
-0.0584605
-0.0591301
-0.0602516
-0.0614229
-0.0623562
-0.062912
-0.0630895
-0.0629763
-0.0626766
-0.0623017
-0.0619511
-0.0616823
-0.0614866
-0.0613414
0.00392247
0.00352351
0.00288447
0.00211075
0.00129548
0.000410919
-0.00072822
-0.00243109
-0.00508277
-0.0090773
-0.0147303
-0.0221978
-0.0314332
-0.0421918
-0.0540747
-0.0665882
-0.0792055
-0.0914168
-0.102767
-0.112878
-0.121463
-0.128324
-0.133334
-0.136432
-0.137638
-0.13701
-0.13462
-0.130614
-0.125176
-0.118537
-0.110984
-0.102868
-0.0946006
-0.0866401
-0.0794458
-0.073418
-0.0688211
-0.065719
-0.0639543
-0.0631946
-0.0630359
-0.0631173
-0.0631942
-0.0631599
-0.0630106
-0.0627876
-0.0625539
-0.062363
-0.0622228
-0.0621221
0.00557866
0.00505049
0.00427621
0.00333781
0.00223968
0.000843612
-0.00116257
-0.00421484
-0.00879054
-0.015298
-0.0239669
-0.0347828
-0.0474843
-0.0616137
-0.0765934
-0.0918066
-0.106665
-0.120657
-0.133374
-0.144517
-0.153891
-0.161382
-0.166935
-0.17053
-0.172211
-0.172076
-0.170168
-0.166567
-0.161358
-0.154643
-0.146546
-0.13724
-0.126972
-0.116087
-0.105051
-0.0944345
-0.0848574
-0.0768785
-0.0708591
-0.0668501
-0.0645736
-0.0635315
-0.0631902
-0.063135
-0.0631357
-0.0631162
-0.0630715
-0.0630247
-0.0629796
-0.0629346
0.0073504
0.0067072
0.00578655
0.00460152
0.00302334
0.000773133
-0.00260115
-0.00764037
-0.0148441
-0.0245295
-0.0367328
-0.0511882
-0.0673799
-0.0846371
-0.102239
-0.119506
-0.135862
-0.150871
-0.164229
-0.175756
-0.185364
-0.193034
-0.198773
-0.202598
-0.204571
-0.204817
-0.203373
-0.200282
-0.195575
-0.189271
-0.181382
-0.171921
-0.160938
-0.148561
-0.135067
-0.120933
-0.106869
-0.0937657
-0.0825462
-0.0739178
-0.0681302
-0.0648828
-0.063474
-0.0631126
-0.0631878
-0.0633694
-0.0635495
-0.0636875
-0.0637626
-0.0637772
0.00897971
0.00824047
0.00713795
0.00557331
0.00324944
-0.000266682
-0.0055504
-0.013184
-0.0235852
-0.0368668
-0.0527834
-0.0707744
-0.0900746
-0.109848
-0.129309
-0.147806
-0.164866
-0.180182
-0.193595
-0.205044
-0.214539
-0.222124
-0.227849
-0.231751
-0.233894
-0.234407
-0.233322
-0.23067
-0.226469
-0.220711
-0.213358
-0.204342
-0.193577
-0.180996
-0.166616
-0.150636
-0.133548
-0.11622
-0.0998631
-0.0858139
-0.0751434
-0.0682454
-0.064676
-0.0634075
-0.063335
-0.0636783
-0.064077
-0.0644127
-0.0646177
-0.0646925
0.0101131
0.00928271
0.0079312
0.00580967
0.00243346
-0.00277378
-0.0104599
-0.021154
-0.0350792
-0.0520507
-0.0714936
-0.0925595
-0.11429
-0.135776
-0.156271
-0.175246
-0.192385
-0.207544
-0.220694
-0.231871
-0.24114
-0.248576
-0.254244
-0.258182
-0.260443
-0.261138
-0.260293
-0.257938
-0.254095
-0.248763
-0.241907
-0.233451
-0.223267
-0.21119
-0.197053
-0.180763
-0.162444
-0.142611
-0.122316
-0.103136
-0.0868676
-0.0749256
-0.0677275
-0.0645092
-0.0637931
-0.0641594
-0.0647549
-0.0652829
-0.0656199
-0.0657581
0.0103218
0.00938603
0.0076944
0.00481711
8.63816e-05
-0.00718057
-0.0176267
-0.0316231
-0.0491033
-0.0695315
-0.0920068
-0.115451
-0.138811
-0.161215
-0.182053
-0.200975
-0.217843
-0.232652
-0.245468
-0.256378
-0.265468
-0.272812
-0.278466
-0.28246
-0.284827
-0.28566
-0.284968
-0.282785
-0.279137
-0.274038
-0.267477
-0.259409
-0.249734
-0.238289
-0.224847
-0.209152
-0.191015
-0.170488
-0.148123
-0.125203
-0.103746
-0.086042
-0.0737698
-0.067154
-0.064877
-0.0649218
-0.0656665
-0.0663787
-0.0668561
-0.0670695
0.009161
0.00809453
0.00596103
0.0021407
-0.0041909
-0.0137658
-0.0271338
-0.0444163
-0.0651981
-0.0885874
-0.11341
-0.138456
-0.162689
-0.185374
-0.206093
-0.224687
-0.241169
-0.25563
-0.268184
-0.278928
-0.287939
-0.295276
-0.300976
-0.305057
-0.307533
-0.30848
-0.307897
-0.305813
-0.302255
-0.297245
-0.290793
-0.282888
-0.273482
-0.262468
-0.249662
-0.234792
-0.217524
-0.197571
-0.174925
-0.150218
-0.125053
-0.101987
-0.0838168
-0.0722929
-0.0671059
-0.0661314
-0.0668626
-0.0677672
-0.0684093
-0.0687232
0.00625423
0.00502461
0.00235697
-0.00254817
-0.0106288
-0.0225996
-0.0388364
-0.0591485
-0.0827563
-0.108454
-0.134882
-0.160808
-0.185312
-0.207853
-0.228216
-0.246406
-0.262536
-0.276742
-0.289144
-0.299827
-0.308844
-0.316233
-0.322015
-0.326196
-0.328777
-0.329824
-0.329332
-0.327322
-0.323815
-0.318833
-0.312394
-0.304507
-0.295164
-0.284325
-0.271885
-0.25765
-0.241307
-0.222443
-0.200676
-0.175961
-0.149086
-0.122125
-0.0983039
-0.0808529
-0.0712205
-0.068099
-0.0684159
-0.0695096
-0.0703525
-0.0708092
0.00136231
-6.11028e-05
-0.00332657
-0.00938819
-0.0192454
-0.0335322
-0.0523907
-0.0752929
-0.101121
-0.128428
-0.155773
-0.181997
-0.206361
-0.228531
-0.248469
-0.26629
-0.282157
-0.296212
-0.308554
-0.319241
-0.328305
-0.335765
-0.341632
-0.345903
-0.348577
-0.349711
-0.349302
-0.347361
-0.343906
-0.33895
-0.33251
-0.3246
-0.31523
-0.3044
-0.292081
-0.278179
-0.262489
-0.244653
-0.224172
-0.200563
-0.173788
-0.144944
-0.116801
-0.0933714
-0.0780486
-0.0713494
-0.070491
-0.0716714
-0.0727625
-0.0734182
-0.00556775
-0.00720606
-0.0110925
-0.0183027
-0.0298448
-0.046222
-0.0673117
-0.0922591
-0.119664
-0.14793
-0.175626
-0.201736
-0.225722
-0.247439
-0.266974
-0.284503
-0.300195
-0.314172
-0.326502
-0.337217
-0.34633
-0.353849
-0.359782
-0.364125
-0.366872
-0.368076
-0.367742
-0.365872
-0.362478
-0.35757
-0.351156
-0.343248
-0.333855
-0.322992
-0.310669
-0.296873
-0.281519
-0.26439
-0.245066
-0.222933
-0.197411
-0.168572
-0.13808
-0.109705
-0.0882244
-0.0765589
-0.0734068
-0.074355
-0.0757532
-0.0766568
-0.0143883
-0.0162484
-0.0207358
-0.029013
-0.0420502
-0.0601892
-0.0830403
-0.109461
-0.137842
-0.166521
-0.194152
-0.219891
-0.243394
-0.264658
-0.283849
-0.301159
-0.316737
-0.330672
-0.343002
-0.353738
-0.362881
-0.370436
-0.376411
-0.380802
-0.383603
-0.384862
-0.384592
-0.382789
-0.379462
-0.374618
-0.368262
-0.360397
-0.351028
-0.340166
-0.327832
-0.31405
-0.298823
-0.282074
-0.263554
-0.242749
-0.218896
-0.191347
-0.160494
-0.128989
-0.101906
-0.084372
-0.0776232
-0.0777211
-0.0794484
-0.0806369
-0.0247714
-0.0268445
-0.0318753
-0.0410821
-0.0553598
-0.0748791
-0.0990052
-0.126362
-0.155209
-0.183889
-0.21118
-0.236416
-0.259412
-0.280264
-0.299171
-0.316315
-0.331809
-0.345709
-0.358029
-0.368766
-0.377917
-0.385485
-0.39148
-0.395901
-0.398741
-0.400042
-0.399826
-0.398082
-0.394821
-0.390047
-0.383765
-0.375973
-0.366673
-0.355869
-0.343574
-0.329819
-0.314643
-0.298069
-0.280016
-0.260172
-0.237872
-0.212171
-0.18246
-0.149876
-0.118647
-0.0951656
-0.0836461
-0.0820002
-0.0839536
-0.0854715
-0.0362555
-0.0385181
-0.0440077
-0.0539736
-0.0692087
-0.0897214
-0.114669
-0.142506
-0.171423
-0.19982
-0.226615
-0.251302
-0.273813
-0.294304
-0.312977
-0.329983
-0.345402
-0.359259
-0.371551
-0.38227
-0.391409
-0.398974
-0.404974
-0.409413
-0.412281
-0.413613
-0.41344
-0.411748
-0.408546
-0.40384
-0.397633
-0.389928
-0.380723
-0.370019
-0.35782
-0.344147
-0.329045
-0.312576
-0.294776
-0.275537
-0.254429
-0.230564
-0.202807
-0.170904
-0.137479
-0.108883
-0.0919037
-0.0874857
-0.0893595
-0.09128
-0.0483049
-0.0507205
-0.0565696
-0.0671132
-0.0830262
-0.104176
-0.129558
-0.157515
-0.186225
-0.214169
-0.240401
-0.264546
-0.286617
-0.306795
-0.325265
-0.342147
-0.357488
-0.37129
-0.38354
-0.394225
-0.403342
-0.410893
-0.41689
-0.421339
-0.424228
-0.425582
-0.425446
-0.423795
-0.420644
-0.415997
-0.409863
-0.402243
-0.39314
-0.382555
-0.370488
-0.356952
-0.341978
-0.325633
-0.308005
-0.289135
-0.268843
-0.246495
-0.220883
-0.19083
-0.157157
-0.124997
-0.102594
-0.0944575
-0.0957586
-0.0981748
-0.0603692
-0.0628908
-0.0689957
-0.0799425
-0.0962796
-0.117763
-0.143273
-0.171093
-0.199422
-0.226832
-0.252497
-0.276137
-0.297818
-0.317724
-0.336016
-0.35278
-0.368037
-0.381774
-0.393973
-0.404618
-0.413706
-0.42124
-0.42723
-0.431684
-0.434589
-0.435959
-0.435851
-0.434235
-0.431125
-0.426529
-0.420456
-0.412914
-0.403907
-0.393441
-0.381519
-0.368149
-0.353353
-0.337183
-0.319736
-0.301127
-0.281376
-0.260153
-0.23648
-0.208806
-0.176447
-0.142607
-0.115569
-0.103107
-0.103259
-0.106213
-0.0719337
-0.0745104
-0.0807658
-0.0919588
-0.108504
-0.130079
-0.155494
-0.183011
-0.210869
-0.237731
-0.262863
-0.286055
-0.307398
-0.327066
-0.345196
-0.361846
-0.377018
-0.390688
-0.402832
-0.413437
-0.422497
-0.430014
-0.435996
-0.440452
-0.44337
-0.444749
-0.444665
-0.443076
-0.439999
-0.435443
-0.42942
-0.421941
-0.413018
-0.40266
-0.390877
-0.377679
-0.363084
-0.347131
-0.329905
-0.311544
-0.292184
-0.271761
-0.249652
-0.224382
-0.194328
-0.160622
-0.130314
-0.113448
-0.111918
-0.115333
-0.0825796
-0.0851173
-0.0914395
-0.10274
-0.119318
-0.140803
-0.165971
-0.193093
-0.220458
-0.246802
-0.271461
-0.294268
-0.315322
-0.334786
-0.35277
-0.369314
-0.384403
-0.398009
-0.410104
-0.420673
-0.42971
-0.437213
-0.44319
-0.447648
-0.450576
-0.45196
-0.451894
-0.450325
-0.447271
-0.442744
-0.436757
-0.429326
-0.420467
-0.410199
-0.398537
-0.385498
-0.371103
-0.355385
-0.338415
-0.320326
-0.301302
-0.281466
-0.260547
-0.237409
-0.210083
-0.177953
-0.146019
-0.125237
-0.121637
-0.125295
-0.0919892
-0.0943343
-0.100656
-0.111958
-0.12843
-0.149692
-0.174521
-0.201213
-0.228105
-0.253991
-0.278251
-0.300739
-0.321554
-0.340844
-0.358702
-0.37515
-0.390167
-0.403718
-0.415774
-0.426317
-0.43534
-0.442838
-0.448813
-0.453274
-0.45621
-0.457603
-0.457547
-0.45599
-0.452949
-0.448437
-0.44247
-0.435068
-0.426252
-0.416048
-0.40448
-0.391574
-0.377357
-0.361866
-0.345164
-0.327369
-0.308678
-0.289315
-0.269291
-0.247898
-0.223288
-0.193668
-0.161713
-0.137944
-0.132073
-0.135676
-0.0999141
-0.101931
-0.108146
-0.11937
-0.135633
-0.156579
-0.181015
-0.207279
-0.23375
-0.259253
-0.283194
-0.305431
-0.326056
-0.345204
-0.362956
-0.379326
-0.394286
-0.407798
-0.41983
-0.430362
-0.439383
-0.446886
-0.452868
-0.457335
-0.460281
-0.461685
-0.461634
-0.460086
-0.457046
-0.452535
-0.446569
-0.439172
-0.430372
-0.420201
-0.408692
-0.395882
-0.381808
-0.366512
-0.35006
-0.332561
-0.314207
-0.295265
-0.275935
-0.255911
-0.233736
-0.20706
-0.176415
-0.15082
-0.142682
-0.145936
-0.106188
-0.107788
-0.113752
-0.124824
-0.140811
-0.161379
-0.185398
-0.211252
-0.237358
-0.262559
-0.286258
-0.308308
-0.328789
-0.347828
-0.3655
-0.381813
-0.396737
-0.41023
-0.422258
-0.432797
-0.441833
-0.449354
-0.455355
-0.459837
-0.462795
-0.46421
-0.464162
-0.462618
-0.459571
-0.455046
-0.449063
-0.441647
-0.432832
-0.422657
-0.411166
-0.398406
-0.384424
-0.369275
-0.35303
-0.3358
-0.317768
-0.299216
-0.280454
-0.26149
-0.241353
-0.217657
-0.189252
-0.163019
-0.152827
-0.155505
-0.110743
-0.111869
-0.117434
-0.12826
-0.143909
-0.164047
-0.187624
-0.213086
-0.238884
-0.263863
-0.287408
-0.309346
-0.329742
-0.348713
-0.366333
-0.382614
-0.397524
-0.411022
-0.423068
-0.433635
-0.442702
-0.450256
-0.456285
-0.460784
-0.46375
-0.46517
-0.465117
-0.463578
-0.460515
-0.455962
-0.449943
-0.442483
-0.433622
-0.423407
-0.41189
-0.399129
-0.385183
-0.370118
-0.354017
-0.336997
-0.319246
-0.301046
-0.282765
-0.264627
-0.246123
-0.225176
-0.199538
-0.173723
-0.161879
-0.163841
-0.113607
-0.114229
-0.119258
-0.129726
-0.144972
-0.164624
-0.187721
-0.212785
-0.238305
-0.263117
-0.286573
-0.308464
-0.328828
-0.347775
-0.365382
-0.381664
-0.396595
-0.41013
-0.422228
-0.432856
-0.441988
-0.449606
-0.455693
-0.460242
-0.463245
-0.464687
-0.464611
-0.463041
-0.459928
-0.455309
-0.449211
-0.441669
-0.432726
-0.422431
-0.410843
-0.398027
-0.384053
-0.369002
-0.35297
-0.336085
-0.318542
-0.300633
-0.282756
-0.265269
-0.248038
-0.22947
-0.206778
-0.18222
-0.169264
-0.170464
-0.11489
-0.115007
-0.119381
-0.129349
-0.144106
-0.163204
-0.185764
-0.210401
-0.235646
-0.260325
-0.283744
-0.305642
-0.326026
-0.344994
-0.362624
-0.37894
-0.393921
-0.407524
-0.419704
-0.430422
-0.439647
-0.447353
-0.453521
-0.458136
-0.46119
-0.462671
-0.462597
-0.461007
-0.457844
-0.453149
-0.446955
-0.439293
-0.430212
-0.419769
-0.408034
-0.395083
-0.381005
-0.365889
-0.34984
-0.332999
-0.315574
-0.297871
-0.28031
-0.263332
-0.247079
-0.23047
-0.21065
-0.187941
-0.174486
-0.174954
-0.114765
-0.114416
-0.118036
-0.127333
-0.141479
-0.159926
-0.181863
-0.206009
-0.230949
-0.2555
-0.278912
-0.300864
-0.321319
-0.340353
-0.358047
-0.374434
-0.389501
-0.403207
-0.415504
-0.426348
-0.435698
-0.443525
-0.4498
-0.454506
-0.457627
-0.459154
-0.459087
-0.457476
-0.454255
-0.449467
-0.443151
-0.435342
-0.426088
-0.415456
-0.403518
-0.390362
-0.376081
-0.360782
-0.344594
-0.327682
-0.310268
-0.292666
-0.275319
-0.258721
-0.243207
-0.22815
-0.210963
-0.190452
-0.177118
-0.176947
-0.113464
-0.112719
-0.115524
-0.123954
-0.137319
-0.154981
-0.17617
-0.199713
-0.224269
-0.248653
-0.272061
-0.294097
-0.314665
-0.333815
-0.351621
-0.368123
-0.383318
-0.397169
-0.409625
-0.420635
-0.430152
-0.438136
-0.444553
-0.449376
-0.452587
-0.454171
-0.454118
-0.452487
-0.449202
-0.444306
-0.437844
-0.429852
-0.420382
-0.409504
-0.397298
-0.383859
-0.369291
-0.353713
-0.337268
-0.320141
-0.302583
-0.284946
-0.267694
-0.251349
-0.236375
-0.222501
-0.207618
-0.189446
-0.176793
-0.176118
-0.111249
-0.110207
-0.112182
-0.119548
-0.131916
-0.148612
-0.168882
-0.191657
-0.215689
-0.239814
-0.263177
-0.285301
-0.306017
-0.32533
-0.343301
-0.359972
-0.375345
-0.389389
-0.402053
-0.413277
-0.423006
-0.43119
-0.437787
-0.442763
-0.446091
-0.447752
-0.447731
-0.446077
-0.442728
-0.437713
-0.431082
-0.422874
-0.413144
-0.401964
-0.38942
-0.375614
-0.360658
-0.344686
-0.327858
-0.310381
-0.292536
-0.274704
-0.257391
-0.241154
-0.226541
-0.213525
-0.200577
-0.184716
-0.173187
-0.17217
-0.108399
-0.107174
-0.108356
-0.114491
-0.125612
-0.14111
-0.160237
-0.182021
-0.205326
-0.229035
-0.252258
-0.274437
-0.295317
-0.31484
-0.333035
-0.349937
-0.365552
-0.379849
-0.392777
-0.404271
-0.414265
-0.4227
-0.429524
-0.434693
-0.438172
-0.439937
-0.439969
-0.4383
-0.434889
-0.429748
-0.422928
-0.414473
-0.404439
-0.3929
-0.379946
-0.365684
-0.350237
-0.333749
-0.316399
-0.29842
-0.280126
-0.261939
-0.244409
-0.228131
-0.213699
-0.201243
-0.189848
-0.176142
-0.166015
-0.164823
-0.105182
-0.103888
-0.104365
-0.109167
-0.118787
-0.132805
-0.150512
-0.171025
-0.193331
-0.216394
-0.239317
-0.26147
-0.282501
-0.302271
-0.320756
-0.337967
-0.3539
-0.368527
-0.381791
-0.393621
-0.403945
-0.412691
-0.419796
-0.425206
-0.428878
-0.430781
-0.430889
-0.429222
-0.425756
-0.420486
-0.413462
-0.404732
-0.394352
-0.382397
-0.36896
-0.354152
-0.338103
-0.320971
-0.302954
-0.284313
-0.265401
-0.246687
-0.228772
-0.2123
-0.197908
-0.185728
-0.175491
-0.163685
-0.155029
-0.153802
-0.101834
-0.100567
-0.100474
-0.103929
-0.111836
-0.124064
-0.140019
-0.15892
-0.179888
-0.202
-0.224389
-0.246373
-0.267503
-0.287539
-0.30638
-0.323989
-0.34034
-0.355392
-0.369083
-0.381336
-0.392067
-0.401195
-0.408646
-0.414355
-0.41827
-0.420351
-0.420568
-0.418926
-0.415416
-0.410019
-0.40278
-0.39375
-0.382986
-0.370561
-0.356568
-0.341122
-0.32436
-0.306453
-0.287622
-0.268159
-0.248459
-0.229043
-0.210571
-0.193738
-0.179238
-0.167128
-0.157636
-0.147385
-0.140042
-0.138853
-0.0985403
-0.097369
-0.0968678
-0.0990703
-0.105137
-0.115276
-0.129104
-0.145991
-0.165217
-0.185997
-0.207539
-0.229139
-0.250262
-0.270552
-0.289807
-0.307914
-0.324801
-0.340401
-0.354636
-0.367418
-0.378655
-0.388253
-0.396128
-0.402204
-0.406421
-0.40873
-0.409096
-0.40751
-0.403975
-0.398457
-0.390997
-0.381649
-0.370465
-0.357517
-0.342898
-0.326725
-0.309142
-0.290335
-0.270547
-0.250105
-0.229453
-0.209169
-0.189974
-0.172617
-0.157827
-0.14565
-0.13648
-0.127365
-0.120952
-0.119744
-0.0954312
-0.094396
-0.0936559
-0.0947917
-0.0990098
-0.106816
-0.118127
-0.132548
-0.149564
-0.168564
-0.188871
-0.209798
-0.230742
-0.251231
-0.270938
-0.289644
-0.307202
-0.323496
-0.338419
-0.351867
-0.36373
-0.373907
-0.382301
-0.388829
-0.393419
-0.396016
-0.396579
-0.395086
-0.391551
-0.385926
-0.378248
-0.368566
-0.356933
-0.343417
-0.328108
-0.311127
-0.292624
-0.272799
-0.251923
-0.230362
-0.208611
-0.187309
-0.167239
-0.149199
-0.133943
-0.121527
-0.11229
-0.10381
-0.0977499
-0.0962391
-0.0925843
-0.0917036
-0.090878
-0.091193
-0.0936817
-0.0990145
-0.107441
-0.118913
-0.133199
-0.149917
-0.168538
-0.188435
-0.208962
-0.229539
-0.249698
-0.26909
-0.287458
-0.304613
-0.320397
-0.334672
-0.347313
-0.358202
-0.367232
-0.37431
-0.379359
-0.382316
-0.383134
-0.381784
-0.378278
-0.372569
-0.36468
-0.354659
-0.342556
-0.328435
-0.312386
-0.29453
-0.275026
-0.25409
-0.232022
-0.209228
-0.186259
-0.163815
-0.142737
-0.123862
-0.107961
-0.0950488
-0.08542
-0.0769462
-0.0704857
-0.0679977
-0.090032
-0.0893142
-0.0885259
-0.0882786
-0.0892536
-0.092094
-0.0973454
-0.105393
-0.116406
-0.130302
-0.14675
-0.165211
-0.185027
-0.205524
-0.226089
-0.24622
-0.265525
-0.283709
-0.30054
-0.31583
-0.329422
-0.34118
-0.350985
-0.358734
-0.364343
-0.367744
-0.368888
-0.367739
-0.364301
-0.358539
-0.350459
-0.340105
-0.327525
-0.312782
-0.295963
-0.277192
-0.256637
-0.234533
-0.211208
-0.187112
-0.162845
-0.139169
-0.116968
-0.0971088
-0.0803539
-0.0666375
-0.0563012
-0.0470443
-0.0393621
-0.0346195
-0.0877657
-0.0872236
-0.0865629
-0.0859772
-0.085687
-0.0861224
-0.0880204
-0.09224
-0.0994613
-0.110001
-0.123781
-0.140385
-0.159166
-0.179367
-0.20024
-0.221118
-0.241453
-0.260816
-0.278874
-0.295372
-0.310104
-0.322905
-0.333639
-0.342195
-0.348481
-0.352426
-0.353978
-0.353099
-0.349784
-0.344013
-0.335775
-0.325111
-0.312071
-0.296714
-0.279129
-0.259443
-0.237836
-0.214561
-0.189974
-0.164562
-0.138972
-0.114006
-0.0905789
-0.0695623
-0.0516917
-0.0368224
-0.0254031
-0.0144331
-0.00501752
0.00395422
-0.0857286
-0.0853923
-0.0849291
-0.0841566
-0.0828023
-0.0809695
-0.0794638
-0.0795877
-0.0826027
-0.0893216
-0.0999878
-0.114343
-0.131768
-0.151441
-0.172483
-0.194063
-0.215468
-0.236115
-0.255552
-0.27343
-0.289481
-0.3035
-0.315326
-0.324832
-0.331923
-0.336522
-0.338575
-0.338047
-0.334924
-0.329203
-0.320862
-0.309938
-0.296484
-0.280562
-0.262263
-0.24172
-0.219124
-0.194746
-0.168966
-0.142298
-0.115413
-0.0891294
-0.0643565
-0.0419392
-0.0225665
-0.00605197
0.00703914
0.0207874
0.0317056
0.0475346
-0.0837997
-0.0837241
-0.0835166
-0.0826131
-0.0802808
-0.076295
-0.0714484
-0.0674044
-0.065999
-0.068596
-0.0758245
-0.0876245
-0.103426
-0.122354
-0.143409
-0.165604
-0.18806
-0.210036
-0.230942
-0.250325
-0.267839
-0.283224
-0.296287
-0.306882
-0.314901
-0.320267
-0.322924
-0.322838
-0.319991
-0.314397
-0.306032
-0.294931
-0.281151
-0.264761
-0.245859
-0.224587
-0.201145
-0.17582
-0.149002
-0.121213
-0.0931171
-0.0655025
-0.0392226
-0.0150426
0.00643748
0.0254613
0.041433
0.059415
0.071749
0.0982061
-0.0817845
-0.0820364
-0.0821176
-0.0810279
-0.0776619
-0.071575
-0.0635415
-0.055488
-0.0497374
-0.0481827
-0.0518654
-0.0609607
-0.0749745
-0.0929946
-0.113917
-0.136614
-0.160046
-0.183323
-0.205715
-0.226656
-0.24571
-0.262557
-0.276961
-0.28875
-0.297804
-0.304038
-0.307398
-0.307849
-0.305379
-0.300002
-0.291719
-0.280559
-0.266587
-0.249882
-0.230554
-0.208754
-0.184692
-0.158659
-0.131038
-0.102327
-0.0731369
-0.0441691
-0.016156
0.010285
0.0347197
0.0575786
0.0784704
0.103241
0.120239
0.163281
-0.0794693
-0.0800769
-0.080444
-0.0790038
-0.0744048
-0.0661949
-0.0552163
-0.0435568
-0.0338764
-0.028492
-0.0288233
-0.0352929
-0.0475089
-0.0645493
-0.0852298
-0.108305
-0.132597
-0.157077
-0.180886
-0.203346
-0.223933
-0.242259
-0.25804
-0.271074
-0.281224
-0.288398
-0.292539
-0.293618
-0.291625
-0.286575
-0.278495
-0.267421
-0.253431
-0.236618
-0.2171
-0.195038
-0.170645
-0.1442
-0.116054
-0.0866405
-0.0564637
-0.0260705
0.00400466
0.0333751
0.0618598
0.0902089
0.118428
0.153609
0.183386
0.248071
-0.0769582
-0.0778071
-0.078305
-0.0762597
-0.0702102
-0.0597825
-0.046115
-0.0314589
-0.0185824
-0.010047
-0.00755814
-0.011753
-0.0223534
-0.0384595
-0.0588449
-0.0821803
-0.107183
-0.132705
-0.157781
-0.18163
-0.203647
-0.223376
-0.240486
-0.254744
-0.26599
-0.274125
-0.27909
-0.28086
-0.279434
-0.274829
-0.267085
-0.25625
-0.242422
-0.225718
-0.206265
-0.184222
-0.159789
-0.133217
-0.104797
-0.0748577
-0.0437443
-0.0117725
0.0208294
0.0540546
0.0881477
0.1243
0.162825
0.212481
0.259982
0.338548
-0.0755367
-0.0762347
-0.0763628
-0.0731385
-0.0652585
-0.0526063
-0.0365271
-0.0195307
-0.0043944
0.00638025
0.0108951
0.00836878
-0.000997876
-0.0163435
-0.036444
-0.0599326
-0.0854604
-0.111801
-0.137904
-0.162911
-0.186145
-0.207095
-0.225386
-0.240751
-0.253013
-0.262062
-0.267835
-0.270311
-0.269497
-0.265425
-0.258152
-0.247719
-0.234214
-0.217781
-0.198572
-0.176743
-0.152469
-0.125952
-0.0974037
-0.0670249
-0.0349563
-0.00120503
0.0344603
0.0727063
0.1147
0.162772
0.217989
0.289113
0.349478
0.424448
-0.07971
-0.0790106
-0.0774018
-0.0717922
-0.0612451
-0.0460063
-0.0276803
-0.00886908
0.00764736
0.0196571
0.0253951
0.0238603
0.0152401
0.000373379
-0.0195403
-0.0431324
-0.069026
-0.095951
-0.122805
-0.148676
-0.172837
-0.194733
-0.213953
-0.230207
-0.2433
-0.253111
-0.259575
-0.262672
-0.262414
-0.258841
-0.252016
-0.242029
-0.228958
-0.212882
-0.193961
-0.172373
-0.148279
-0.121835
-0.093172
-0.062352
-0.029291
0.00637603
0.0454978
0.0897885
0.142167
0.207855
0.291649
0.403568
0.49583
0.60341
-0.103142
-0.0953222
-0.0868765
-0.076088
-0.0617245
-0.0433925
-0.0227369
-0.00233623
0.0153616
0.0281455
0.0343258
0.0332153
0.0250051
0.0104857
-0.00918927
-0.0326853
-0.0586413
-0.0857829
-0.112989
-0.139317
-0.164012
-0.186485
-0.2063
-0.223145
-0.236808
-0.247158
-0.254124
-0.257684
-0.257849
-0.254663
-0.248191
-0.238519
-0.225744
-0.209976
-0.191341
-0.169978
-0.146036
-0.11964
-0.0908531
-0.0596135
-0.0256189
0.0118746
0.0543817
0.104823
0.168326
0.254387
0.375678
0.555724
0.767687
1.10785
-0.189977
-0.112222
-0.0806348
-0.071406
-0.0581279
-0.0387536
-0.0170552
0.00395293
0.0217613
0.0341945
0.039847
0.0382357
0.0296328
0.0148576
-0.00494317
-0.0284716
-0.0544123
-0.08153
-0.10873
-0.135086
-0.159845
-0.182419
-0.202365
-0.219364
-0.233199
-0.24373
-0.250884
-0.254634
-0.25499
-0.251994
-0.24571
-0.236222
-0.22363
-0.208043
-0.189583
-0.16838
-0.144569
-0.118245
-0.0894164
-0.0579221
-0.023296
0.015486
0.0604157
0.115235
0.186503
0.286565
0.435311
0.680372
1.07937
1.82853
)
;

boundaryField
{
    movingWall
    {
        type            zeroGradient;
    }
    fixedWalls
    {
        type            zeroGradient;
    }
    frontAndBack
    {
        type            empty;
    }
}


// ************************************************************************* //
