/*--------------------------------*- C++ -*----------------------------------*\
  =========                 |
  \\      /  F ield         | OpenFOAM: The Open Source CFD Toolbox
   \\    /   O peration     | Website:  https://openfoam.org
    \\  /    A nd           | Version:  7
     \\/     M anipulation  |
\*---------------------------------------------------------------------------*/
FoamFile
{
    version     2.0;
    format      ascii;
    class       surfaceScalarField;
    location    "1400";
    object      phi;
}
// * * * * * * * * * * * * * * * * * * * * * * * * * * * * * * * * * * * * * //

dimensions      [0 3 -1 0 0 0 0];

internalField   nonuniform List<scalar> 
4900
(
1.69946e-06
-1.70423e-06
6.22404e-06
-4.52461e-06
1.17168e-05
-5.4928e-06
1.65028e-05
-4.78597e-06
1.97501e-05
-3.24736e-06
2.13892e-05
-1.63904e-06
2.17676e-05
-3.78453e-07
2.1262e-05
5.05581e-07
2.00155e-05
1.24643e-06
1.78642e-05
2.15129e-06
1.44148e-05
3.44936e-06
9.18046e-06
5.23431e-06
1.67006e-06
7.51038e-06
-8.56842e-06
1.02384e-05
-2.18844e-05
1.33159e-05
-3.84406e-05
1.65562e-05
-5.81411e-05
1.97005e-05
-8.05504e-05
2.24092e-05
-0.00010483
2.42794e-05
-0.000129722
2.48925e-05
-0.0001536
2.38779e-05
-0.000174577
2.09767e-05
-0.000190671
1.60939e-05
-0.000200007
9.33624e-06
-0.000201065
1.05816e-06
-0.000192905
-8.16067e-06
-0.000175281
-1.76235e-05
-0.000148717
-2.65645e-05
-0.000114506
-3.42109e-05
-7.46746e-05
-3.98312e-05
-3.18749e-05
-4.27997e-05
1.07777e-05
-4.26526e-05
5.00265e-05
-3.92489e-05
8.30205e-05
-3.2994e-05
0.000107584
-2.45638e-05
0.000122454
-1.48698e-05
0.000127516
-5.06232e-06
0.000123854
3.66283e-06
0.000113464
1.039e-05
9.87383e-05
1.47253e-05
8.20207e-05
1.67176e-05
6.52482e-05
1.67725e-05
4.97661e-05
1.54821e-05
3.63083e-05
1.34578e-05
2.51018e-05
1.12064e-05
1.60389e-05
9.06291e-06
8.89271e-06
7.14621e-06
3.59391e-06
5.2988e-06
5.05054e-07
3.08885e-06
5.05053e-07
4.47472e-06
-6.17899e-06
1.38488e-05
-1.38987e-05
2.43109e-05
-1.5955e-05
3.28992e-05
-1.33743e-05
3.80017e-05
-8.34994e-06
3.9228e-05
-2.86542e-06
3.686e-05
1.98954e-06
3.12043e-05
6.16117e-06
2.2153e-05
1.02977e-05
9.07799e-06
1.52262e-05
-9.01777e-06
2.1545e-05
-3.3235e-05
2.94515e-05
-6.44735e-05
3.87487e-05
-0.000103173
4.89375e-05
-0.000149103
5.92459e-05
-0.000201203
6.86568e-05
-0.000257528
7.60248e-05
-0.000315366
8.02471e-05
-0.00037152
8.04338e-05
-0.000422655
7.60276e-05
-0.000465633
6.68553e-05
-0.000497774
5.31178e-05
-0.000517026
3.53457e-05
-0.000522047
1.43577e-05
-0.000512292
-8.6964e-06
-0.000487854
-3.25993e-05
-0.000449369
-5.61087e-05
-0.000398042
-7.7891e-05
-0.000335703
-9.65498e-05
-0.000264824
-0.00011071
-0.000188496
-0.000119128
-0.000110295
-0.000120854
-3.41038e-05
-0.00011544
3.60055e-05
-0.000103103
9.63423e-05
-8.49006e-05
0.000144092
-6.26191e-05
0.00017733
-3.83012e-05
0.00019527
-1.42766e-05
0.000198504
7.15565e-06
0.000189132
2.40977e-05
0.000170301
3.5548e-05
0.000145604
4.14697e-05
0.000118449
4.26369e-05
9.16024e-05
4.03048e-05
6.69299e-05
3.58789e-05
4.54188e-05
3.0574e-05
2.7459e-05
2.5106e-05
1.33348e-05
1.9423e-05
3.75531e-06
1.26683e-05
4.26036e-06
5.9873e-06
-1.21663e-05
1.73372e-05
-2.52487e-05
2.88015e-05
-2.74193e-05
3.6822e-05
-2.13949e-05
3.95371e-05
-1.1065e-05
3.63579e-05
3.1371e-07
2.72214e-05
1.11259e-05
1.19205e-05
2.1462e-05
-1.03098e-05
3.25279e-05
-4.07465e-05
4.56628e-05
-8.07491e-05
6.15476e-05
-0.000131241
7.99432e-05
-0.000192287
9.97946e-05
-0.000262783
0.000119433
-0.000340383
0.000136846
-0.00042173
0.000150004
-0.000502907
0.000157202
-0.000579963
0.000157302
-0.000649352
0.000149823
-0.00070821
0.000134886
-0.000754451
0.000113097
-0.000786723
8.53888e-05
-0.000804263
5.28863e-05
-0.000806719
1.68133e-05
-0.00079395
-2.14653e-05
-0.000765974
-6.05749e-05
-0.000723109
-9.89741e-05
-0.000666088
-0.000134912
-0.000596144
-0.000166494
-0.000515121
-0.000191733
-0.000425545
-0.000208703
-0.000330617
-0.000215781
-0.00023412
-0.000211938
-0.000140186
-0.000197037
-5.3047e-05
-0.00017204
2.3333e-05
-0.000138999
8.59823e-05
-0.000100951
0.00013311
-6.14041e-05
0.000163749
-2.34836e-05
0.000178043
9.80346e-06
0.000177531
3.60605e-05
0.000165015
5.39859e-05
0.000144043
6.36085e-05
0.000118298
6.60499e-05
9.10396e-05
6.31371e-05
6.47422e-05
5.68715e-05
4.10642e-05
4.87839e-05
2.12072e-05
3.928e-05
6.60697e-06
2.72685e-05
1.08673e-05
6.50871e-06
-1.86751e-05
1.7597e-05
-3.63371e-05
2.6952e-05
-3.67744e-05
3.0759e-05
-2.52019e-05
2.72119e-05
-7.51794e-06
1.56174e-05
1.19081e-05
-4.55976e-06
3.1303e-05
-3.43336e-05
5.12358e-05
-7.52269e-05
7.34213e-05
-0.000128717
9.91525e-05
-0.000195533
0.000128364
-0.000275096
0.000159506
-0.000365279
0.000189978
-0.000462595
0.00021675
-0.000562731
0.000236982
-0.000661238
0.000248511
-0.00075414
0.000250104
-0.0008383
0.000241463
-0.000911508
0.00022303
-0.000972353
0.000195732
-0.00102001
0.000160755
-0.001054
0.000119375
-0.00107396
7.28493e-05
-0.00107957
2.24198e-05
-0.00107043
-3.06024e-05
-0.00104626
-8.47489e-05
-0.00100689
-0.000138336
-0.0009524
-0.000189406
-0.000883184
-0.00023571
-0.000800187
-0.00027473
-0.000705049
-0.000303842
-0.000600253
-0.000320577
-0.00048921
-0.00032298
-0.000376198
-0.00031005
-0.000266055
-0.000282183
-0.000163633
-0.000241421
-7.32474e-05
-0.000191336
1.83075e-06
-0.000136482
6.00266e-05
-8.16794e-05
0.000101037
-3.12066e-05
0.000125116
1.19808e-05
0.000133556
4.55458e-05
0.000128863
6.8302e-05
0.000114332
8.05808e-05
9.35466e-05
8.39225e-05
6.98689e-05
8.05492e-05
4.61152e-05
7.25376e-05
2.46357e-05
6.07595e-05
7.92811e-06
4.39761e-05
1.87954e-05
6.20556e-06
-2.48807e-05
1.48963e-05
-4.50279e-05
1.92077e-05
-4.10858e-05
1.54787e-05
-2.1473e-05
2.16252e-06
5.7982e-06
-2.16249e-05
3.56954e-05
-5.70602e-05
6.67383e-05
-0.00010587
0.000100045
-0.000169677
0.000137229
-0.000249046
0.000178521
-0.000342792
0.00022211
-0.000447897
0.000264611
-0.000559981
0.000302061
-0.000674101
0.00033087
-0.000785581
0.000348462
-0.000890599
0.000353529
-0.000986429
0.000345933
-0.00107136
0.00032639
-0.00114442
0.000296089
-0.00120512
0.000256435
-0.00125324
0.000208872
-0.00128861
0.000154754
-0.0013111
9.53324e-05
-0.00132052
3.18411e-05
-0.00131663
-3.44919e-05
-0.00129907
-0.000102307
-0.00126734
-0.000170067
-0.00122086
-0.000235888
-0.00115911
-0.000297458
-0.00108182
-0.000352016
-0.000989229
-0.000396438
-0.000882411
-0.000427395
-0.000763674
-0.000441718
-0.000636728
-0.000436996
-0.000506636
-0.000412275
-0.000379419
-0.000368638
-0.000261278
-0.000309477
-0.000157517
-0.000240243
-7.16615e-05
-0.000167535
-5.14877e-06
-9.77193e-05
4.25632e-05
-3.57312e-05
7.27191e-05
1.53899e-05
8.69225e-05
5.40986e-05
8.77013e-05
7.9802e-05
7.82644e-05
9.33593e-05
6.2124e-05
9.66896e-05
4.27406e-05
9.19209e-05
2.34084e-05
8.00916e-05
7.60326e-06
5.97813e-05
2.63987e-05
4.89896e-06
-2.97797e-05
8.88236e-06
-4.90114e-05
5.29339e-06
-3.74969e-05
-8.91802e-06
-7.26164e-06
-3.50963e-05
3.19764e-05
-7.44041e-05
7.50032e-05
-0.00012856
0.000120894
-0.000199312
0.000170797
-0.000287219
0.000225136
-0.000390757
0.00028206
-0.000506281
0.000337634
-0.00062873
0.00038706
-0.000752655
0.000425987
-0.000873149
0.000451364
-0.000986407
0.00046172
-0.00108987
0.000456992
-0.00118206
0.00043812
-0.00126226
0.000406588
-0.00133026
0.000364097
-0.00138622
0.000312391
-0.00143045
0.000253104
-0.00146336
0.000187661
-0.00148535
0.000117322
-0.00149677
4.32616e-05
-0.00149773
-3.35295e-05
-0.00148797
-0.00011207
-0.00146684
-0.000191195
-0.00143333
-0.000269401
-0.00138607
-0.000344719
-0.00132348
-0.000414608
-0.00124408
-0.000475834
-0.00114699
-0.00052448
-0.00103245
-0.000556264
-0.000902308
-0.000567135
-0.000760525
-0.000554058
-0.000613224
-0.000515939
-0.000468202
-0.000454499
-0.000333718
-0.000374728
-0.00021683
-0.000284423
-0.000121844
-0.000192705
-4.97175e-05
-0.000107858
1.18609e-06
-3.55137e-05
3.34682e-05
2.18164e-05
4.96804e-05
6.35897e-05
5.27818e-05
9.0258e-05
4.61865e-05
0.000103285
3.35974e-05
0.00010451
1.88753e-05
9.48137e-05
6.11462e-06
7.2542e-05
3.25133e-05
2.27566e-06
-3.20553e-05
-9.10996e-07
-4.58248e-05
-1.4999e-05
-2.3409e-05
-4.21806e-05
1.992e-05
-8.36391e-05
7.34348e-05
-0.000140808
0.000132172
-0.000215389
0.000195474
-0.00030806
0.000263468
-0.000417285
0.000334361
-0.000539122
0.000403896
-0.000668022
0.000466534
-0.000798054
0.000517092
-0.000923947
0.000551879
-0.00104168
0.000569097
-0.0011486
0.000568636
-0.00124322
0.000551617
-0.00132497
0.000519871
-0.00139392
0.000475537
-0.00145064
0.000420815
-0.00149605
0.000357803
-0.00153126
0.000288315
-0.00155742
0.000213815
-0.0015756
0.000135503
-0.00158664
5.4308e-05
-0.00159101
-2.91645e-05
-0.00158867
-0.000114406
-0.00157913
-0.000200736
-0.00156124
-0.000287288
-0.00153316
-0.000372803
-0.0014924
-0.000455366
-0.00143611
-0.000532124
-0.0013614
-0.000599192
-0.00126588
-0.000651782
-0.00114849
-0.000684527
-0.00101041
-0.000692133
-0.000855852
-0.000670499
-0.000692221
-0.00061813
-0.000529556
-0.000537393
-0.000378869
-0.00043511
-0.000249645
-0.00032193
-0.00014736
-0.000210143
-7.24737e-05
-0.0001104
-2.16807e-05
-2.89766e-05
9.34099e-06
3.2568e-05
2.44493e-05
7.51497e-05
2.7428e-05
0.000100306
2.22345e-05
0.000109704
1.30488e-05
0.000103999
4.2137e-06
8.13771e-05
3.6727e-05
-1.91544e-06
-3.01399e-05
-1.46488e-05
-3.30916e-05
-4.13158e-05
3.25793e-06
-8.32079e-05
6.1812e-05
-0.000141337
0.000131564
-0.000217101
0.000207937
-0.000311284
0.000289657
-0.000422605
0.000374788
-0.000547171
0.000458928
-0.000679181
0.000535905
-0.000812246
0.000599599
-0.000940604
0.00064545
-0.00105981
0.000671084
-0.0011669
0.000676185
-0.00126024
0.000661981
-0.00133931
0.000630683
-0.00140442
0.000584984
-0.00145659
0.000527701
-0.0014973
0.000461535
-0.00152834
0.000388843
-0.00155151
0.000311479
-0.00156851
0.000230818
-0.00158083
0.00014782
-0.00158954
6.30179e-05
-0.00159533
-2.33717e-05
-0.0015985
-0.00011124
-0.00159881
-0.00020042
-0.00159536
-0.000290745
-0.00158641
-0.000381746
-0.00156945
-0.000472334
-0.00154104
-0.000560527
-0.00149699
-0.000643248
-0.00143268
-0.000716094
-0.00134396
-0.000773244
-0.00122827
-0.000807824
-0.00108588
-0.000812889
-0.000921071
-0.000782937
-0.000742701
-0.000715762
-0.000563527
-0.000614284
-0.000397926
-0.000487531
-0.000258287
-0.000349781
-0.000151379
-0.000217309
-7.68425e-05
-0.000103513
-2.92125e-05
-1.50619e-05
-2.06101e-06
4.79981e-05
9.98265e-06
8.82624e-05
1.17358e-05
0.00010795
7.79429e-06
0.000107941
2.60182e-06
8.65695e-05
3.93288e-05
-7.74219e-06
-2.23978e-05
-3.18925e-05
-8.94131e-06
-7.24877e-05
4.3853e-05
-0.000129786
0.00011911
-0.000204609
0.000206387
-0.000297689
0.000301016
-0.000408132
0.000400101
-0.000532433
0.00049909
-0.000664819
0.000591314
-0.000798558
0.000669644
-0.000927337
0.000728378
-0.00104614
0.000764251
-0.00115154
0.000776488
-0.00124166
0.000766302
-0.00131594
0.000736257
-0.00137492
0.000689671
-0.00142005
0.000630111
-0.00145335
0.000561002
-0.00147715
0.000485337
-0.00149378
0.000405464
-0.00150533
0.000323036
-0.00151364
0.000239125
-0.00152011
0.000154292
-0.00152577
6.86763e-05
-0.00153135
-1.77884e-05
-0.00153731
-0.00010528
-0.0015437
-0.000194037
-0.00155008
-0.000284365
-0.00155546
-0.000376365
-0.00155803
-0.000469763
-0.00155483
-0.000563724
-0.00154159
-0.000656493
-0.00151281
-0.000744873
-0.00146225
-0.000823799
-0.00138383
-0.000886252
-0.00127306
-0.000923655
-0.00112903
-0.000926966
-0.000956107
-0.000888686
-0.000764811
-0.000805579
-0.000571029
-0.000681313
-0.000392975
-0.000527835
-0.000246183
-0.000364101
-0.000138393
-0.000211303
-6.76983e-05
-8.57563e-05
-2.58906e-05
6.19051e-06
-4.30683e-06
6.66786e-05
3.87358e-06
9.97699e-05
4.28405e-06
0.00010753
1.71529e-06
8.91383e-05
4.10441e-05
-1.49323e-05
-7.46546e-06
-5.16606e-05
2.77869e-05
-0.000106481
9.86737e-05
-0.00017872
0.000191349
-0.000268729
0.000296396
-0.000375966
0.000408253
-0.000497566
0.000521701
-0.000628133
0.000629656
-0.000760813
0.000723993
-0.000888786
0.000797617
-0.00100639
0.00084598
-0.00110963
0.000867489
-0.00119624
0.000863107
-0.0012656
0.000835654
-0.00131842
0.000789077
-0.00135653
0.000727781
-0.00138246
0.000656048
-0.00139905
0.000577594
-0.00140904
0.000495318
-0.00141477
0.000411202
-0.00141818
0.000326438
-0.00142067
0.000241616
-0.00142324
0.000156867
-0.00142661
7.20453e-05
-0.00143131
-1.30855e-05
-0.00143774
-9.88542e-05
-0.00144612
-0.000185654
-0.00145659
-0.000273894
-0.00146902
-0.000363941
-0.00148267
-0.000456108
-0.00149587
-0.000550527
-0.00150559
-0.000646774
-0.00150713
-0.000743334
-0.00149393
-0.000836996
-0.00145797
-0.000922214
-0.00139095
-0.000990671
-0.00128635
-0.00103157
-0.0011419
-0.00103313
-0.000962062
-0.000985421
-0.000759333
-0.000884043
-0.000553294
-0.000733875
-0.000366419
-0.000550975
-0.00021719
-0.000360533
-0.000113334
-0.000189612
-5.01821e-05
-5.69613e-05
-1.63332e-05
3.28298e-05
-1.28636e-06
8.47231e-05
2.7502e-06
0.000103494
1.64886e-06
9.02396e-05
4.2693e-05
-2.29872e-05
1.55217e-05
-7.24436e-05
7.72433e-05
-0.000140705
0.000166935
-0.000226259
0.000276903
-0.000328581
0.000398718
-0.000445547
0.000525219
-0.000572491
0.000648645
-0.000702779
0.000759944
-0.000829253
0.000850468
-0.000945607
0.00091397
-0.00104718
0.000947551
-0.00113122
0.000951533
-0.00119687
0.00092876
-0.00124495
0.000883731
-0.00127761
0.00082173
-0.00129784
0.000748013
-0.00130895
0.000667161
-0.00131406
0.0005827
-0.00131573
0.000496991
-0.00131588
0.000411356
-0.0013158
0.000326358
-0.00131626
0.000242071
-0.00131768
0.00015829
-0.00132035
7.47131e-05
-0.00132447
-8.96504e-06
-0.00133026
-9.30632e-05
-0.00133803
-0.000177888
-0.0013482
-0.000263723
-0.00136121
-0.000350932
-0.0013773
-0.000440017
-0.00139626
-0.000531564
-0.00141698
-0.000626057
-0.00143675
-0.000723562
-0.00145062
-0.000823121
-0.00145108
-0.000921757
-0.00142838
-0.00101337
-0.00137194
-0.00108801
-0.00127286
-0.00113221
-0.00112745
-0.00113083
-0.000940574
-0.00107092
-0.000727424
-0.000947025
-0.000511998
-0.000766401
-0.00032127
-0.000551261
-0.000175842
-0.00033504
-8.16122e-05
-0.000151191
-2.96135e-05
-1.91689e-05
-5.39156e-06
6.05011e-05
2.49416e-06
9.56082e-05
2.18166e-06
9.05521e-05
4.48746e-05
-3.11647e-05
4.66864e-05
-9.2429e-05
0.000138507
-0.000172423
0.000246929
-0.000268676
0.000373156
-0.000379531
0.000509573
-0.000501305
0.000646993
-0.000628006
0.000775346
-0.000752458
0.000884395
-0.000867817
0.000965827
-0.000968698
0.00101485
-0.00105172
0.00103057
-0.00111561
0.00101542
-0.00116109
0.000974246
-0.00119051
0.000913151
-0.00120725
0.000838468
-0.00121505
0.000755816
-0.00121741
0.000669513
-0.0012171
0.000582392
-0.00121606
0.000495955
-0.00121544
0.000410734
-0.00121576
0.000326679
-0.00121716
0.000243472
-0.0012196
0.000160726
-0.00122299
7.81029e-05
-0.00122728
-4.67265e-06
-0.00123254
-8.78005e-05
-0.00123901
-0.000171421
-0.00124709
-0.000255641
-0.00125736
-0.000340666
-0.00127053
-0.000426842
-0.00128738
-0.000514712
-0.00130838
-0.000605063
-0.00133307
-0.000698872
-0.00135928
-0.000796912
-0.00138215
-0.00089889
-0.00139339
-0.00100213
-0.00138143
-0.00109997
-0.00133312
-0.00118053
-0.00123712
-0.00122683
-0.00108856
-0.00121947
-0.000893423
-0.00114216
-0.000670646
-0.000989179
-0.000449614
-0.000772293
-0.000261708
-0.000522946
-0.000127794
-0.000285105
-4.91523e-05
-9.78109e-05
-1.12736e-05
2.26224e-05
2.15963e-06
8.2175e-05
2.88137e-06
8.98304e-05
4.7756e-05
-3.859e-05
8.52763e-05
-0.000109888
0.000209806
-0.00019915
0.000336191
-0.000302835
0.00047684
-0.000418086
0.000624825
-0.000539949
0.000768855
-0.000661679
0.000897076
-0.000776162
0.000998878
-0.000877314
0.00106698
-0.000960972
0.00109851
-0.00102524
0.00109484
-0.0010705
0.00106068
-0.00109904
0.00100279
-0.00111448
0.00092859
-0.00112094
0.000844927
-0.00112227
0.00075715
-0.00112152
0.000668761
-0.00112069
0.000581562
-0.00112084
0.000496102
-0.00112231
0.0004122
-0.00112501
0.00032938
-0.00112867
0.000247137
-0.00113301
0.000165063
-0.00113778
8.28743e-05
-0.00114285
3.94577e-07
-0.00114819
-8.24528e-05
-0.00115393
-0.000165687
-0.00116028
-0.000249292
-0.00116766
-0.000333286
-0.00117674
-0.000417756
-0.00118849
-0.000502967
-0.00120404
-0.000589508
-0.00122449
-0.000678422
-0.00125024
-0.000771171
-0.00127986
-0.000869271
-0.00130869
-0.000973294
-0.00132765
-0.00108101
-0.00132322
-0.00118496
-0.00127952
-0.00127053
-0.00118278
-0.00131621
-0.00102752
-0.00129743
-0.000822148
-0.00119455
-0.000591046
-0.00100339
-0.000369982
-0.00074401
-0.000193734
-0.000461354
-7.99917e-05
-0.000211553
-2.19474e-05
-3.54219e-05
2.48537e-07
5.99791e-05
3.2734e-06
8.68056e-05
5.10294e-05
-4.44955e-05
0.000129772
-0.000123391
0.000288701
-0.000218969
0.000431769
-0.000326554
0.000584426
-0.000442209
0.000740479
-0.000560122
0.000886768
-0.000673344
0.0010103
-0.000775283
0.00110082
-0.00086093
0.00115263
-0.000927543
0.00116512
-0.000974833
0.00114213
-0.00100475
0.0010906
-0.0010209
0.00101894
-0.00102765
0.000935337
-0.0010292
0.00084648
-0.0010289
0.000756852
-0.00102892
0.000668778
-0.0010303
0.000582941
-0.00103327
0.000499071
-0.00103759
0.000416523
-0.00104286
0.000334645
-0.00104866
0.000252944
-0.0010547
0.000171102
-0.00106077
8.89437e-05
-0.00106677
6.3924e-06
-0.00107267
-7.6556e-05
-0.00107849
-0.000159869
-0.00108429
-0.000243487
-0.00109025
-0.000327322
-0.00109672
-0.000411292
-0.00110429
-0.00049539
-0.00111399
-0.000579812
-0.00112727
-0.000665145
-0.00114583
-0.000752606
-0.00117092
-0.000844188
-0.00120189
-0.000942315
-0.00123436
-0.00104854
-0.00125835
-0.00116097
-0.00125804
-0.00127083
-0.00121454
-0.00135971
-0.00111196
-0.00140001
-0.000945479
-0.00136103
-0.000728091
-0.00122078
-0.000491745
-0.000980356
-0.000279067
-0.000674031
-0.000125359
-0.000365261
-3.96783e-05
-0.000121102
-4.39166e-06
2.46925e-05
3.03196e-06
7.93819e-05
5.40614e-05
-4.83104e-05
0.000178082
-0.000131953
0.000372344
-0.000230699
0.000530515
-0.000338746
0.000692472
-0.000451312
0.000853045
-0.000562171
0.000997628
-0.000664618
0.00111275
-0.000752909
0.00118911
-0.000823302
0.00122302
-0.000874551
0.00121637
-0.000907898
0.00117548
-0.000926599
0.0011093
-0.000935052
0.00102739
-0.000937754
0.000938038
-0.000938404
0.00084713
-0.000939432
0.00075788
-0.000941996
0.000671342
-0.000946297
0.000587242
-0.000952002
0.000504777
-0.000958606
0.000423127
-0.000965647
0.000341686
-0.000972798
0.000260095
-0.000979872
0.000178176
-0.000986787
9.5858e-05
-0.000993522
1.31279e-05
-0.00100008
-6.99976e-05
-0.00100646
-0.000153488
-0.00101266
-0.000237293
-0.00101865
-0.000321324
-0.00102449
-0.000405458
-0.00103033
-0.000489549
-0.00103665
-0.000573487
-0.00104445
-0.000657346
-0.00105538
-0.000741677
-0.00107167
-0.000827898
-0.00109541
-0.000918581
-0.00112679
-0.00101716
-0.0011615
-0.00112626
-0.00118821
-0.00124413
-0.00118826
-0.00135966
-0.00113959
-0.00144868
-0.00102501
-0.00147561
-0.000842592
-0.0014032
-0.000612977
-0.00120997
-0.000377913
-0.000909095
-0.00018567
-0.000557504
-6.59168e-05
-0.000240856
-1.23359e-05
-2.88885e-05
2.04144e-06
6.50047e-05
5.61028e-05
-4.9705e-05
0.000227787
-0.000135084
0.000457723
-0.000233916
0.000629347
-0.000339341
0.000797896
-0.000446023
0.000959727
-0.000547719
0.00109932
-0.000638297
0.00120332
-0.00071306
0.00126387
-0.000769597
0.00127956
-0.000808083
0.00125486
-0.000831032
0.00119843
-0.00084255
0.00112082
-0.000847258
0.0010321
-0.000849221
0.000940001
-0.000851255
0.000849163
-0.00085477
0.000761396
-0.000860059
0.00067663
-0.000866764
0.000593946
-0.000874312
0.000512325
-0.000882194
0.000431009
-0.000890072
0.000349564
-0.00089778
0.000267803
-0.000905277
0.000185674
-0.000912593
0.000103174
-0.000919778
2.03123e-05
-0.000926872
-6.29029e-05
-0.000933891
-0.000146469
-0.000940811
-0.000230373
-0.000947558
-0.000314577
-0.000954017
-0.000398998
-0.000960079
-0.000483488
-0.000965736
-0.00056783
-0.000971281
-0.000651801
-0.000977607
-0.000735351
-0.000986526
-0.000818978
-0.0010008
-0.000904303
-0.00102335
-0.000994606
-0.00105505
-0.00109456
-0.00109123
-0.00120794
-0.00111846
-0.00133243
-0.00111445
-0.00145269
-0.00105404
-0.00153603
-0.000920565
-0.00153667
-0.000718569
-0.00141197
-0.000480228
-0.00114744
-0.000258229
-0.000779503
-0.000101483
-0.000397602
-2.37473e-05
-0.000106624
3.08671e-07
4.09487e-05
5.64115e-05
-4.85927e-05
0.00027638
-0.000132755
0.000541886
-0.000228855
0.000725447
-0.000329086
0.000898127
-0.000427842
0.00105848
-0.00051918
0.00119066
-0.000597757
0.0012819
-0.000659998
0.00132611
-0.000704757
0.00132432
-0.000733407
0.00128351
-0.000749344
0.00121436
-0.000757015
0.00112849
-0.000760749
0.00103583
-0.000763824
0.000943076
-0.000768067
0.000853406
-0.00077401
0.00076734
-0.000781369
0.000683989
-0.000789544
0.000602121
-0.000797979
0.00052076
-0.00080631
0.00043934
-0.000814379
0.000357633
-0.000822172
0.000275596
-0.000829755
0.000193257
-0.00083722
0.000110639
-0.000844651
2.7743e-05
-0.000852111
-5.54431e-05
-0.000859629
-0.00013895
-0.000867198
-0.000222804
-0.000874758
-0.000307017
-0.000882186
-0.000391571
-0.000889286
-0.000476388
-0.000895818
-0.000561298
-0.000901594
-0.000646025
-0.000906722
-0.000730223
-0.000912008
-0.000813692
-0.000919429
-0.000896882
-0.000932297
-0.000981738
-0.000954343
-0.00107252
-0.000986862
-0.00117543
-0.00102406
-0.00129523
-0.00104911
-0.00142764
-0.00103526
-0.00154988
-0.000955133
-0.0016168
-0.000796093
-0.00157101
-0.000574288
-0.00136924
-0.000337203
-0.00101659
-0.000146113
-0.000588692
-3.90024e-05
-0.000213735
-2.30621e-06
4.25253e-06
5.41052e-05
-4.50928e-05
0.000321473
-0.000125307
0.0006221
-0.000216245
0.000816386
-0.000309281
0.000991163
-0.000398776
0.00114798
-0.000479315
0.0012712
-0.000546451
0.00134904
-0.000597696
0.00137735
-0.00063299
0.00135961
-0.000654581
0.0013051
-0.000666307
0.00122609
-0.000672496
0.00113468
-0.000676841
0.00104018
-0.000681708
0.000947943
-0.000688048
0.000859746
-0.000695783
0.000775075
-0.000704356
0.000692562
-0.000713172
0.000610937
-0.000721825
0.000529413
-0.00073014
0.000447655
-0.000738112
0.000365605
-0.000745827
0.000283312
-0.000753402
0.000200832
-0.000760945
0.000118182
-0.000768542
3.53399e-05
-0.000776256
-4.77288e-05
-0.000784122
-0.000131084
-0.000792149
-0.000214777
-0.000800313
-0.000298853
-0.000808534
-0.00038335
-0.000816656
-0.000468266
-0.000824421
-0.000553533
-0.000831482
-0.000638964
-0.000837499
-0.000724207
-0.000842412
-0.000808779
-0.000846967
-0.000892326
-0.000853392
-0.000975314
-0.000865674
-0.00106023
-0.000888334
-0.00115277
-0.00092251
-0.00126105
-0.000959909
-0.00139024
-0.000978648
-0.00153114
-0.000947112
-0.00164834
-0.000838338
-0.00167978
-0.000649487
-0.00155809
-0.000414613
-0.00125146
-0.00019776
-0.000805545
-5.87613e-05
-0.000352733
-5.87532e-06
-4.86335e-05
4.82299e-05
-3.94779e-05
0.00036095
-0.000113339
0.000695961
-0.000197129
0.000900176
-0.000281517
0.00107555
-0.000361014
0.00122748
-0.000430867
0.00134105
-0.000487543
0.00140571
-0.000529514
0.00141933
-0.00055755
0.00138765
-0.000574408
0.00132195
-0.000583964
0.00123565
-0.000590091
0.00114081
-0.000595693
0.00104578
-0.000602289
0.000954539
-0.000610182
0.000867639
-0.000618966
0.000783859
-0.000628045
0.000701641
-0.00063696
0.000619853
-0.000645492
0.000537945
-0.000653622
0.000455785
-0.000661445
0.000373427
-0.00066909
0.000290957
-0.000676681
0.000208423
-0.000684318
0.000125819
-0.000692074
4.30956e-05
-0.000700001
-3.98012e-05
-0.000708132
-0.000122954
-0.000716481
-0.000206428
-0.000725047
-0.000290287
-0.000733794
-0.000374603
-0.000742633
-0.000459427
-0.000751386
-0.000544779
-0.000759752
-0.000630598
-0.000767291
-0.000716668
-0.000773522
-0.000802548
-0.000778258
-0.00088759
-0.000782288
-0.000971284
-0.000788264
-0.00105426
-0.000801022
-0.00114001
-0.000825712
-0.00123636
-0.000862268
-0.00135369
-0.000897791
-0.00149561
-0.000903533
-0.00164259
-0.000844099
-0.00173922
-0.000698563
-0.00170363
-0.00048223
-0.00146779
-0.000252338
-0.00103544
-8.31705e-05
-0.0005219
-1.03787e-05
-0.000121425
3.78512e-05
-3.21199e-05
0.00039307
-9.7599e-05
0.00076144
-0.000172691
0.000975267
-0.000247463
0.00115032
-0.000316681
0.00129669
-0.00037632
0.00140069
-0.000423697
0.00145309
-0.000458063
0.00145369
-0.000480728
0.00141031
-0.000494607
0.00133583
-0.000503298
0.00124434
-0.000510032
0.00114754
-0.00051693
0.00105268
-0.000524836
0.000962445
-0.000533654
0.000876457
-0.000542873
0.000793079
-0.000551995
0.000710763
-0.000560733
0.000628591
-0.000569027
0.000546239
-0.000576961
0.000463719
-0.000584674
0.00038114
-0.0005923
0.000298583
-0.00059995
0.000216073
-0.000607708
0.000133577
-0.000615632
5.10198e-05
-0.000623766
-3.16667e-05
-0.000632135
-0.000114586
-0.000640752
-0.00019781
-0.000649624
-0.000281416
-0.000658736
-0.00036549
-0.000668047
-0.000450116
-0.00067746
-0.000535366
-0.000686781
-0.000621278
-0.00069566
-0.000707789
-0.000703569
-0.000794639
-0.000709908
-0.000881251
-0.000714424
-0.000966769
-0.000718104
-0.00105058
-0.000724313
-0.0011338
-0.000738954
-0.00122172
-0.000767302
-0.00132534
-0.000806104
-0.00145681
-0.000834965
-0.00161373
-0.000817382
-0.0017568
-0.000718623
-0.00180239
-0.000533438
-0.00165298
-0.000304563
-0.00126431
-0.000111219
-0.000715244
-1.58194e-05
-0.000216825
2.20318e-05
-2.34425e-05
0.000416513
-7.88926e-05
0.00081689
-0.00014413
0.0010405
-0.000208708
0.0012149
-0.000267684
0.00135567
-0.00031776
0.00145077
-0.000356999
0.00149233
-0.000385219
0.00148191
-0.000403985
0.00142908
-0.000416081
0.00134793
-0.000424615
0.00125287
-0.000432121
0.00115505
-0.000440038
0.00106059
-0.000448742
0.000971149
-0.000457948
0.000885663
-0.00046718
0.000802311
-0.000476087
0.00071967
-0.00048454
0.000637043
-0.000492585
0.000554284
-0.000500357
0.00047149
-0.000507999
0.000388783
-0.000515636
0.00030622
-0.000523359
0.000223796
-0.000531241
0.000141458
-0.000539331
5.91105e-05
-0.000547671
-2.33266e-05
-0.000556278
-0.000105979
-0.000565162
-0.000188926
-0.000574326
-0.000272252
-0.000583762
-0.000356054
-0.000593448
-0.00044043
-0.000603334
-0.00052548
-0.000613312
-0.000611299
-0.000623163
-0.000697938
-0.000632483
-0.000785319
-0.000640647
-0.000873086
-0.00064695
-0.000960466
-0.000651177
-0.00104635
-0.000654792
-0.00113018
-0.000662287
-0.00121423
-0.000680689
-0.00130694
-0.000714054
-0.00142345
-0.000752651
-0.00157514
-0.000765616
-0.00174383
-0.000710933
-0.00185707
-0.000564395
-0.00179952
-0.000349395
-0.00147931
-0.000140911
-0.000923727
-2.20955e-05
-0.000335641
-6.37437e-08
-1.38867e-05
0.000430399
-5.80179e-05
0.000861021
-0.000112572
0.00109506
-0.000166665
0.00126899
-0.000215627
0.00140463
-0.000256836
0.00149198
-0.000288976
0.00152447
-0.000312222
0.00150516
-0.000328145
0.001445
-0.000339186
0.00135897
-0.000347851
0.00126154
-0.000356005
0.0011632
-0.000364556
0.00106915
-0.000373594
0.000980187
-0.00038279
0.000894859
-0.000391775
0.000811295
-0.000400341
0.000728237
-0.000408476
0.000645177
-0.000416284
0.000562092
-0.000423911
0.000479118
-0.000431493
0.000396364
-0.000439134
0.000313861
-0.000446913
0.000231576
-0.000454897
0.000149442
-0.000463136
6.73501e-05
-0.000471673
-1.47892e-05
-0.000480522
-9.71306e-05
-0.000489689
-0.000179759
-0.00049917
-0.00026277
-0.000508955
-0.000346269
-0.000519024
-0.000430361
-0.000529346
-0.000515158
-0.000539859
-0.000600786
-0.000550438
-0.00068736
-0.000560822
-0.000774935
-0.000570531
-0.000863378
-0.000578829
-0.000952167
-0.000584949
-0.00104023
-0.000588903
-0.00112623
-0.000593068
-0.00121006
-0.000603524
-0.00129648
-0.000627936
-0.00139904
-0.000666217
-0.00153685
-0.000697557
-0.00171249
-0.000679844
-0.00187479
-0.000574271
-0.00190509
-0.000383119
-0.00167046
-0.00016967
-0.00113718
-2.94175e-05
-0.000475893
-2.94813e-05
-3.87235e-06
0.000434272
-3.57393e-05
0.000892888
-7.9025e-05
0.00113834
-0.000122537
0.00131251
-0.000161798
0.00144389
-0.000194785
0.00152496
-0.000220673
0.00155036
-0.000239811
0.0015243
-0.000253588
0.00145878
-0.000263952
0.00136933
-0.000272775
0.00127036
-0.00028133
0.00117176
-0.000290136
0.00107795
-0.000299139
0.00098919
-0.000308054
0.000903773
-0.000316636
0.000819877
-0.000324798
0.0007364
-0.000332599
0.000652978
-0.000340167
0.00056966
-0.000347641
0.000486592
-0.000355139
0.000403862
-0.000362751
0.000321473
-0.000370549
0.000239374
-0.000378597
0.00015749
-0.000386956
7.57097e-05
-0.000395673
-6.0719e-06
-0.000404764
-8.80398e-05
-0.000414232
-0.000170291
-0.000424065
-0.000252937
-0.000434246
-0.000336088
-0.000444753
-0.000419854
-0.000455555
-0.000504356
-0.000466613
-0.000589728
-0.000477849
-0.000676124
-0.000489102
-0.000763681
-0.000500049
-0.000852431
-0.000510104
-0.000942112
-0.000518417
-0.00103192
-0.000524253
-0.00112039
-0.0005282
-0.00120612
-0.000534177
-0.0012905
-0.000550122
-0.00138309
-0.000582386
-0.00150459
-0.000621468
-0.00167341
-0.000631384
-0.00186487
-0.000564784
-0.00197169
-0.000403849
-0.0018314
-0.000195051
-0.00134597
-3.78486e-05
-0.000633096
-6.73299e-05
6.06324e-06
0.000428209
-1.27256e-05
0.000911677
-4.43807e-05
0.00117
-7.73152e-05
0.00134544
-0.000107194
0.00147377
-0.000132491
0.00155026
-0.000152756
0.00157062
-0.000168372
0.00153991
-0.000180404
0.00147081
-0.000190235
0.00137916
-0.000199107
0.00127923
-0.000207791
0.00118044
-0.000216532
0.00108669
-0.000225229
0.000997887
-0.000233681
0.000912225
-0.000241762
0.000827959
-0.000249476
0.000744114
-0.000256918
0.00066042
-0.000264218
0.000576961
-0.000271503
0.000493876
-0.000278873
0.000411233
-0.000286411
0.000329011
-0.000294183
0.000247146
-0.000302254
0.00016556
-0.000310698
8.41535e-05
-0.00031957
2.80045e-06
-0.000328896
-7.87132e-05
-0.000338677
-0.00016051
-0.000348891
-0.000242723
-0.000359516
-0.000325463
-0.000370523
-0.000408847
-0.000381882
-0.000492997
-0.000393556
-0.000578053
-0.000405491
-0.000664189
-0.000417582
-0.000751591
-0.000429612
-0.0008404
-0.000441163
-0.000930561
-0.000451519
-0.00102156
-0.000459742
-0.00111217
-0.000465356
-0.0012005
-0.000470121
-0.00128574
-0.000480237
-0.00137298
-0.000504767
-0.00148006
-0.000543946
-0.00163423
-0.000571935
-0.00183688
-0.000539356
-0.00200427
-0.000411483
-0.00195927
-0.000215293
-0.00154217
-4.69647e-05
-0.000801423
-0.000114295
1.53118e-05