/*--------------------------------*- C++ -*----------------------------------*\
  =========                 |
  \\      /  F ield         | OpenFOAM: The Open Source CFD Toolbox
   \\    /   O peration     | Website:  https://openfoam.org
    \\  /    A nd           | Version:  7
     \\/     M anipulation  |
\*---------------------------------------------------------------------------*/
FoamFile
{
    version     2.0;
    format      ascii;
    class       volVectorField;
    location    "1400";
    object      U;
}
// * * * * * * * * * * * * * * * * * * * * * * * * * * * * * * * * * * * * * //

dimensions      [0 1 -1 0 0 0 0];

internalField   nonuniform List<vector> 
2500
(
(0.000207614 -0.000201091 0)
(0.00186631 -0.000571127 0)
(0.00447444 -0.000697738 0)
(0.00716334 -0.000600115 0)
(0.00922942 -0.000418992 0)
(0.0104507 -0.000264332 0)
(0.0109305 -0.000188001 0)
(0.0108814 -0.000185875 0)
(0.0104509 -0.000219863 0)
(0.00963448 -0.000245429 0)
(0.00828291 -0.000228682 0)
(0.00616387 -0.000150771 0)
(0.00302009 -2.65301e-06 0)
(-0.00139215 0.000221054 0)
(-0.00727749 0.000523491 0)
(-0.0147684 0.000908193 0)
(-0.0238874 0.00137516 0)
(-0.0345044 0.00191277 0)
(-0.0463016 0.00248782 0)
(-0.0587529 0.003038 0)
(-0.0711299 0.00347352 0)
(-0.082539 0.00368983 0)
(-0.0919912 0.0035885 0)
(-0.0985038 0.00310433 0)
(-0.101212 0.00223158 0)
(-0.0994409 0.00102835 0)
(-0.0929234 -0.00037454 0)
(-0.0817325 -0.00181155 0)
(-0.0663359 -0.00310912 0)
(-0.0475905 -0.00410031 0)
(-0.0267154 -0.00464014 0)
(-0.00519259 -0.00460597 0)
(0.0154522 -0.00393575 0)
(0.0337489 -0.00278447 0)
(0.0483904 -0.00137148 0)
(0.0584213 0.000125514 0)
(0.0634615 0.00149673 0)
(0.0637237 0.00253409 0)
(0.0600141 0.00311175 0)
(0.0534984 0.00322475 0)
(0.0454082 0.00298639 0)
(0.0368471 0.00254957 0)
(0.0286517 0.0020487 0)
(0.0213421 0.00157436 0)
(0.0151479 0.00117425 0)
(0.0100802 0.000863437 0)
(0.00602922 0.000631258 0)
(0.00290125 0.00043604 0)
(0.000795387 0.000192806 0)
(-8.2015e-05 -8.7415e-05 0)
(0.000566271 -0.00181836 0)
(0.00437494 -0.00431648 0)
(0.00958217 -0.00511694 0)
(0.0146041 -0.00444064 0)
(0.0181617 -0.00299827 0)
(0.0197685 -0.00145771 0)
(0.019463 -0.000192349 0)
(0.0174564 0.000765752 0)
(0.0138339 0.00162541 0)
(0.00840656 0.00266535 0)
(0.000737653 0.00410286 0)
(-0.00972908 0.00604387 0)
(-0.0235227 0.00849257 0)
(-0.0410057 0.0113819 0)
(-0.0622582 0.0145734 0)
(-0.0869729 0.0178415 0)
(-0.114392 0.0208657 0)
(-0.143321 0.0232537 0)
(-0.172238 0.024597 0)
(-0.199462 0.024538 0)
(-0.223338 0.02283 0)
(-0.242384 0.0193733 0)
(-0.255401 0.0142323 0)
(-0.261534 0.00763921 0)
(-0.260308 -1.59603e-05 0)
(-0.251655 -0.00821705 0)
(-0.235769 -0.0163936 0)
(-0.213098 -0.0239917 0)
(-0.184411 -0.0304483 0)
(-0.150794 -0.0352296 0)
(-0.113658 -0.0378736 0)
(-0.0746991 -0.0380365 0)
(-0.0358297 -0.0355737 0)
(0.00101683 -0.0306682 0)
(0.0339958 -0.0238187 0)
(0.0614303 -0.0157512 0)
(0.0820029 -0.00728681 0)
(0.0949925 0.000691974 0)
(0.100264 0.00734179 0)
(0.0984325 0.0120805 0)
(0.0909523 0.0147106 0)
(0.0796098 0.0154339 0)
(0.0662311 0.014715 0)
(0.0524142 0.0131076 0)
(0.039337 0.0111172 0)
(0.027694 0.00911043 0)
(0.0177736 0.00724891 0)
(0.00968237 0.00543476 0)
(0.00372629 0.0033433 0)
(0.000329305 0.000918511 0)
(0.000785858 -0.00449539 0)
(0.00568867 -0.00969511 0)
(0.0117182 -0.0109172 0)
(0.0169069 -0.00900567 0)
(0.0197642 -0.00542383 0)
(0.0197131 -0.00146949 0)
(0.0166712 0.00215296 0)
(0.0106364 0.00542354 0)
(0.00138337 0.00878138 0)
(-0.0116196 0.0127928 0)
(-0.0290854 0.017844 0)
(-0.0516418 0.0240119 0)
(-0.0795942 0.0310852 0)
(-0.112713 0.0386002 0)
(-0.150124 0.0458767 0)
(-0.190353 0.0520959 0)
(-0.23151 0.056434 0)
(-0.27156 0.0582051 0)
(-0.308579 0.0569633 0)
(-0.340943 0.052542 0)
(-0.367412 0.0450401 0)
(-0.387141 0.0347733 0)
(-0.399619 0.0222155 0)
(-0.404587 0.00794678 0)
(-0.401966 -0.00738432 0)
(-0.391732 -0.0230958 0)
(-0.373924 -0.0384744 0)
(-0.348814 -0.0527308 0)
(-0.316886 -0.0650314 0)
(-0.278904 -0.0745388 0)
(-0.235959 -0.0804785 0)
(-0.189492 -0.0822392 0)
(-0.141261 -0.0794908 0)
(-0.0932697 -0.07229 0)
(-0.047629 -0.061185 0)
(-0.00633428 -0.0471804 0)
(0.0288909 -0.0315678 0)
(0.056689 -0.0157946 0)
(0.0763684 -0.00115093 0)
(0.0876557 0.0111668 0)
(0.0908136 0.0202508 0)
(0.0870958 0.0257377 0)
(0.0782076 0.0278596 0)
(0.0660389 0.0273061 0)
(0.0523898 0.0249761 0)
(0.0387214 0.0217247 0)
(0.0260341 0.0181223 0)
(0.014968 0.0142394 0)
(0.00625653 0.00958323 0)
(0.000705223 0.00358679 0)
(0.000917708 -0.00772709 0)
(0.00606858 -0.0155927 0)
(0.0115465 -0.016538 0)
(0.0151641 -0.0124516 0)
(0.0154181 -0.00573337 0)
(0.0117499 0.00170004 0)
(0.00393481 0.00894309 0)
(-0.00837589 0.0161043 0)
(-0.0258474 0.0239464 0)
(-0.0492951 0.0332205 0)
(-0.0793565 0.0442066 0)
(-0.116129 0.0565636 0)
(-0.158945 0.0694159 0)
(-0.206352 0.0815406 0)
(-0.25631 0.0916093 0)
(-0.306535 0.0984356 0)
(-0.354854 0.101171 0)
(-0.399459 0.0993961 0)
(-0.439018 0.0930969 0)
(-0.472652 0.082572 0)
(-0.499835 0.0683214 0)
(-0.520271 0.0509477 0)
(-0.533769 0.0310811 0)
(-0.540161 0.00935192 0)
(-0.539282 -0.0135806 0)
(-0.530954 -0.0369799 0)
(-0.515054 -0.0599944 0)
(-0.491551 -0.0816643 0)
(-0.460545 -0.100929 0)
(-0.422356 -0.116645 0)
(-0.377614 -0.127669 0)
(-0.327333 -0.133001 0)
(-0.272976 -0.131953 0)
(-0.216482 -0.124321 0)
(-0.160167 -0.110534 0)
(-0.106515 -0.0917026 0)
(-0.0578723 -0.069529 0)
(-0.0161083 -0.0460161 0)
(0.0175823 -0.0230779 0)
(0.0426095 -0.00245689 0)
(0.058911 0.0146101 0)
(0.0667469 0.0271997 0)
(0.0672286 0.0349368 0)
(0.0619115 0.0381633 0)
(0.0525854 0.0377834 0)
(0.0410418 0.0349324 0)
(0.0288315 0.0305679 0)
(0.0171898 0.0250319 0)
(0.00742135 0.0177402 0)
(0.000862114 0.00736601 0)
(0.000999785 -0.0110183 0)
(0.00561101 -0.020828 0)
(0.00922911 -0.0203485 0)
(0.00967808 -0.0129019 0)
(0.00561969 -0.00193553 0)
(-0.0034648 0.0101274 0)
(-0.01804 0.0223864 0)
(-0.0388614 0.035285 0)
(-0.066863 0.049763 0)
(-0.102697 0.0663463 0)
(-0.146261 0.0846622 0)
(-0.19648 0.10348 0)
(-0.251416 0.121069 0)
(-0.30862 0.135636 0)
(-0.365589 0.145694 0)
(-0.42014 0.150292 0)
(-0.47063 0.149062 0)
(-0.515977 0.142135 0)
(-0.55555 0.129959 0)
(-0.589018 0.11315 0)
(-0.616226 0.0923869 0)
(-0.6371 0.0683372 0)
(-0.651565 0.0416264 0)
(-0.659532 0.0128721 0)
(-0.660909 -0.01726 0)
(-0.655573 -0.0480304 0)
(-0.643302 -0.0785905 0)
(-0.623807 -0.107943 0)
(-0.596801 -0.134902 0)
(-0.562065 -0.158099 0)
(-0.519551 -0.176058 0)
(-0.46954 -0.187325 0)
(-0.412841 -0.19065 0)
(-0.350939 -0.185249 0)
(-0.286044 -0.171103 0)
(-0.220987 -0.149147 0)
(-0.158931 -0.121274 0)
(-0.102882 -0.0900873 0)
(-0.0551275 -0.0584374 0)
(-0.016856 -0.0288433 0)
(0.0118078 -0.00308042 0)
(0.0312433 0.0176494 0)
(0.0420042 0.0326764 0)
(0.0452946 0.0418463 0)
(0.042634 0.0456978 0)
(0.0357488 0.0452992 0)
(0.026402 0.04176 0)
(0.0162519 0.0356004 0)
(0.00711027 0.0261579 0)
(0.000796539 0.0113832 0)
(0.000995765 -0.0139233 0)
(0.00416196 -0.024295 0)
(0.0045812 -0.0208787 0)
(0.000395968 -0.00872631 0)
(-0.00946678 0.00766025 0)
(-0.0255695 0.0255992 0)
(-0.0486552 0.0444888 0)
(-0.0797042 0.0650024 0)
(-0.119431 0.0877966 0)
(-0.167652 0.112558 0)
(-0.223023 0.137832 0)
(-0.283241 0.161464 0)
(-0.345539 0.181236 0)
(-0.407225 0.195369 0)
(-0.466076 0.202792 0)
(-0.520508 0.203158 0)
(-0.569548 0.196694 0)
(-0.61269 0.183981 0)
(-0.649732 0.165753 0)
(-0.680677 0.142794 0)
(-0.705662 0.115874 0)
(-0.724879 0.0856865 0)
(-0.738536 0.0528605 0)
(-0.746832 0.0180166 0)
(-0.749897 -0.0182316 0)
(-0.747723 -0.0552806 0)
(-0.74009 -0.0924446 0)
(-0.726567 -0.128838 0)
(-0.706558 -0.163331 0)
(-0.679299 -0.194535 0)
(-0.643975 -0.220803 0)
(-0.599936 -0.24027 0)
(-0.546951 -0.251035 0)
(-0.485477 -0.251488 0)
(-0.416918 -0.240717 0)
(-0.343805 -0.218885 0)
(-0.269716 -0.1875 0)
(-0.198845 -0.149413 0)
(-0.135241 -0.108396 0)
(-0.0819041 -0.068328 0)
(-0.0401257 -0.0323291 0)
(-0.00953052 -0.00226201 0)
(0.0110487 0.0211412 0)
(0.0228029 0.0375995 0)
(0.0271603 0.0473287 0)
(0.0257847 0.0511108 0)
(0.0204664 0.0499398 0)
(0.0130788 0.0443206 0)
(0.00574964 0.0334782 0)
(0.000591063 0.0148945 0)
(0.000839921 -0.0158648 0)
(0.0014842 -0.0247706 0)
(-0.00259523 -0.0166948 0)
(-0.0126857 0.00145003 0)
(-0.0295718 0.024405 0)
(-0.0539278 0.049573 0)
(-0.0866535 0.0766453 0)
(-0.128508 0.106086 0)
(-0.179367 0.137646 0)
(-0.237801 0.169781 0)
(-0.301283 0.20001 0)
(-0.366782 0.2257 0)
(-0.431384 0.244734 0)
(-0.492724 0.255853 0)
(-0.549144 0.258661 0)
(-0.599649 0.25344 0)
(-0.643765 0.2409 0)
(-0.681388 0.221944 0)
(-0.712695 0.197541 0)
(-0.738082 0.168652 0)
(-0.758081 0.136149 0)
(-0.773265 0.100762 0)
(-0.784207 0.0631251 0)
(-0.791414 0.0237891 0)
(-0.795209 -0.0168078 0)
(-0.795714 -0.0582907 0)
(-0.792836 -0.100219 0)
(-0.786155 -0.141969 0)
(-0.774931 -0.182697 0)
(-0.758057 -0.221245 0)
(-0.734164 -0.25602 0)
(-0.70177 -0.284971 0)
(-0.659472 -0.305723 0)
(-0.60629 -0.315849 0)
(-0.542139 -0.313253 0)
(-0.468294 -0.296705 0)
(-0.387665 -0.266449 0)
(-0.304742 -0.224634 0)
(-0.225054 -0.175285 0)
(-0.154073 -0.123633 0)
(-0.0957999 -0.0748666 0)
(-0.0516962 -0.0327815 0)
(-0.0207466 0.000869071 0)
(-0.000742825 0.0259487 0)
(0.0103105 0.0427895 0)
(0.0143159 0.0520135 0)
(0.0132091 0.0544177 0)
(0.00901408 0.0503551 0)
(0.00400118 0.0389281 0)
(0.000362287 0.0174928 0)
(0.000465143 -0.0160979 0)
(-0.00257285 -0.0209747 0)
(-0.0122839 -0.00661898 0)
(-0.0292323 0.0186575 0)
(-0.0539485 0.0492708 0)
(-0.0871841 0.0828765 0)
(-0.129663 0.119122 0)
(-0.181394 0.157662 0)
(-0.241054 0.196943 0)
(-0.306054 0.234254 0)
(-0.37316 0.266549 0)
(-0.439202 0.291288 0)
(-0.501577 0.306907 0)
(-0.55844 0.312872 0)
(-0.608676 0.309469 0)
(-0.65178 0.297535 0)
(-0.687727 0.278198 0)
(-0.71687 0.252693 0)
(-0.739864 0.222257 0)
(-0.757561 0.188028 0)
(-0.770876 0.150947 0)
(-0.780703 0.111744 0)
(-0.787859 0.0709819 0)
(-0.792992 0.0290352 0)
(-0.796531 -0.0138882 0)
(-0.798736 -0.0576289 0)
(-0.799672 -0.102017 0)
(-0.799045 -0.146801 0)
(-0.796205 -0.191558 0)
(-0.79009 -0.235519 0)
(-0.779222 -0.277409 0)
(-0.761672 -0.315383 0)
(-0.735154 -0.347022 0)
(-0.697355 -0.369384 0)
(-0.646446 -0.379285 0)
(-0.581693 -0.373881 0)
(-0.504106 -0.351467 0)
(-0.416956 -0.312301 0)
(-0.32582 -0.259211 0)
(-0.23786 -0.197618 0)
(-0.160272 -0.134601 0)
(-0.0982349 -0.0770048 0)
(-0.053311 -0.0293755 0)
(-0.0235762 0.00686941 0)
(-0.00555807 0.0324488 0)
(0.00361652 0.0482935 0)
(0.00645983 0.0552482 0)
(0.00529032 0.0535881 0)
(0.00248798 0.042377 0)
(0.000209286 0.0191573 0)
(-0.000171761 -0.0137883 0)
(-0.00796465 -0.0118332 0)
(-0.0241198 0.0101989 0)
(-0.0484354 0.0435019 0)
(-0.0812293 0.0826368 0)
(-0.123138 0.125386 0)
(-0.174299 0.17082 0)
(-0.233642 0.217341 0)
(-0.2987 0.262101 0)
(-0.366139 0.301645 0)
(-0.432538 0.332912 0)
(-0.49499 0.35389 0)
(-0.551381 0.363774 0)
(-0.600409 0.362784 0)
(-0.641493 0.351865 0)
(-0.674664 0.332396 0)
(-0.700451 0.305946 0)
(-0.719758 0.274101 0)
(-0.733718 0.238324 0)
(-0.743529 0.199832 0)
(-0.750313 0.15953 0)
(-0.755069 0.118056 0)
(-0.758609 0.0757992 0)
(-0.761517 0.032914 0)
(-0.764227 -0.0105752 0)
(-0.767068 -0.0546806 0)
(-0.770178 -0.0994784 0)
(-0.773453 -0.145048 0)
(-0.776558 -0.191334 0)
(-0.778831 -0.238003 0)
(-0.779118 -0.284334 0)
(-0.775615 -0.329075 0)
(-0.765846 -0.370225 0)
(-0.746803 -0.404887 0)
(-0.715258 -0.429363 0)
(-0.668349 -0.439563 0)
(-0.604485 -0.431709 0)
(-0.524345 -0.403378 0)
(-0.431629 -0.354715 0)
(-0.333158 -0.289374 0)
(-0.237974 -0.21457 0)
(-0.155218 -0.139714 0)
(-0.0912456 -0.0736234 0)
(-0.0474 -0.0215339 0)
(-0.0204274 0.0158049 0)
(-0.00547074 0.0401146 0)
(0.00120592 0.0527794 0)
(0.00267465 0.0543878 0)
(0.00160627 0.0442025 0)
(0.00018396 0.0201685 0)
(-0.00107245 -0.00816791 0)
(-0.0144152 0.0034028 0)
(-0.0373659 0.0341384 0)
(-0.0690408 0.0760405 0)
(-0.109496 0.124127 0)
(-0.158985 0.17594 0)
(-0.216766 0.229506 0)
(-0.28068 0.281866 0)
(-0.347454 0.329208 0)
(-0.413476 0.367864 0)
(-0.475517 0.395203 0)
(-0.531133 0.409976 0)
(-0.578775 0.412219 0)
(-0.617746 0.402929 0)
(-0.648101 0.383731 0)
(-0.670527 0.356569 0)
(-0.686168 0.323443 0)
(-0.696421 0.286189 0)
(-0.702723 0.246334 0)
(-0.706371 0.205001 0)
(-0.70844 0.162927 0)
(-0.709764 0.12054 0)
(-0.710929 0.0780035 0)
(-0.71232 0.0352964 0)
(-0.714254 -0.00767237 0)
(-0.717001 -0.0510393 0)
(-0.720682 -0.0950146 0)
(-0.725393 -0.13982 0)
(-0.731161 -0.18561 0)
(-0.737822 -0.23244 0)
(-0.744817 -0.280183 0)
(-0.751011 -0.328322 0)
(-0.754513 -0.375638 0)
(-0.75251 -0.419939 0)
(-0.74126 -0.457879 0)
(-0.716479 -0.484955 0)
(-0.674177 -0.495901 0)
(-0.611834 -0.485659 0)
(-0.529735 -0.450891 0)
(-0.432069 -0.391672 0)
(-0.32716 -0.312796 0)
(-0.226232 -0.223847 0)
(-0.140479 -0.13718 0)
(-0.077116 -0.0638201 0)
(-0.0365905 -0.00930924 0)
(-0.0137805 0.0268052 0)
(-0.00262591 0.0471495 0)
(0.00130387 0.0532514 0)
(0.00144712 0.0450201 0)
(0.000288228 0.0209463 0)
(-0.00217961 0.00131043 0)
(-0.0214261 0.0250215 0)
(-0.0510206 0.0650611 0)
(-0.0894992 0.115742 0)
(-0.136548 0.17261 0)
(-0.191811 0.232556 0)
(-0.25359 0.292328 0)
(-0.318879 0.347803 0)
(-0.38401 0.394673 0)
(-0.445464 0.429521 0)
(-0.500435 0.450437 0)
(-0.547065 0.457079 0)
(-0.584474 0.450382 0)
(-0.612687 0.432175 0)
(-0.632503 0.404784 0)
(-0.645285 0.370671 0)
(-0.652681 0.332113 0)
(-0.656353 0.290984 0)
(-0.657753 0.248645 0)
(-0.658004 0.205949 0)
(-0.657894 0.163343 0)
(-0.657923 0.120983 0)
(-0.658356 0.0788336 0)
(-0.659333 0.0367659 0)
(-0.66098 -0.00537262 0)
(-0.663432 -0.0477618 0)
(-0.666777 -0.0905959 0)
(-0.671207 -0.134066 0)
(-0.676961 -0.178385 0)
(-0.684231 -0.223816 0)
(-0.693064 -0.270617 0)
(-0.703199 -0.318876 0)
(-0.713773 -0.368283 0)
(-0.722943 -0.417798 0)
(-0.727595 -0.465193 0)
(-0.723317 -0.506618 0)
(-0.704792 -0.536515 0)
(-0.666761 -0.548157 0)
(-0.605629 -0.53495 0)
(-0.52134 -0.492472 0)
(-0.418859 -0.420878 0)
(-0.308417 -0.326723 0)
(-0.203738 -0.22289 0)
(-0.117977 -0.125401 0)
(-0.0584557 -0.0473766 0)
(-0.023644 0.00624277 0)
(-0.00618902 0.0377611 0)
(0.000679707 0.0503911 0)
(0.00181011 0.0453561 0)
(0.000485827 0.021874 0)
(-0.00335795 0.0148803 0)
(-0.0283506 0.0528216 0)
(-0.0639643 0.102342 0)
(-0.108202 0.161521 0)
(-0.16027 0.226363 0)
(-0.219096 0.292809 0)
(-0.282159 0.356348 0)
(-0.345942 0.412057 0)
(-0.406743 0.455601 0)
(-0.461394 0.48416 0)
(-0.507669 0.496747 0)
(-0.544412 0.494033 0)
(-0.571525 0.477931 0)
(-0.58984 0.451118 0)
(-0.600876 0.416548 0)
(-0.606511 0.37701 0)
(-0.608625 0.334801 0)
(-0.608824 0.291559 0)
(-0.608293 0.248278 0)
(-0.607776 0.205419 0)
(-0.607666 0.163097 0)
(-0.608102 0.121228 0)
(-0.609078 0.0796441 0)
(-0.610534 0.0381732 0)
(-0.612428 -0.00334452 0)
(-0.614795 -0.0450462 0)
(-0.617691 -0.0870348 0)
(-0.621273 -0.129406 0)
(-0.625786 -0.172319 0)
(-0.631555 -0.216018 0)
(-0.638979 -0.26084 0)
(-0.648424 -0.307186 0)
(-0.659983 -0.355435 0)
(-0.673111 -0.405659 0)
(-0.686164 -0.45709 0)
(-0.695912 -0.507443 0)
(-0.697294 -0.552298 0)
(-0.683807 -0.58486 0)
(-0.648816 -0.596567 0)
(-0.587685 -0.578893 0)
(-0.500245 -0.526286 0)
(-0.392705 -0.439519 0)
(-0.277805 -0.328019 0)
(-0.172116 -0.209264 0)
(-0.0902943 -0.103564 0)
(-0.0383213 -0.0252707 0)
(-0.0113369 0.0229094 0)
(-0.000154384 0.0453675 0)
(0.00229721 0.0453547 0)
(0.00072065 0.0231565 0)
(-0.00444354 0.0323895 0)
(-0.0345362 0.0861386 0)
(-0.07514 0.144925 0)
(-0.123721 0.211873 0)
(-0.178945 0.283349 0)
(-0.239058 0.354222 0)
(-0.300954 0.418933 0)
(-0.360942 0.472178 0)
(-0.415558 0.509982 0)
(-0.462163 0.530382 0)
(-0.499229 0.533472 0)
(-0.526401 0.521029 0)
(-0.544418 0.49597 0)
(-0.554859 0.461736 0)
(-0.559773 0.421692 0)
(-0.561249 0.37866 0)
(-0.561059 0.33465 0)
(-0.560471 0.290844 0)
(-0.56022 0.24775 0)
(-0.560617 0.205433 0)
(-0.56169 0.163733 0)
(-0.563326 0.122417 0)
(-0.565369 0.0812722 0)
(-0.567664 0.0401343 0)
(-0.570104 -0.00111415 0)
(-0.572689 -0.0425372 0)
(-0.575445 -0.0841585 0)
(-0.578432 -0.125994 0)
(-0.581805 -0.168094 0)
(-0.585826 -0.210565 0)
(-0.590908 -0.253624 0)
(-0.597592 -0.297669 0)
(-0.606485 -0.343308 0)
(-0.61806 -0.391249 0)
(-0.632229 -0.441964 0)
(-0.647651 -0.495046 0)
(-0.660983 -0.54823 0)
(-0.666467 -0.596372 0)
(-0.656352 -0.631012 0)
(-0.622544 -0.641244 0)
(-0.559455 -0.616319 0)
(-0.467284 -0.5498 0)
(-0.354335 -0.444125 0)
(-0.236685 -0.313371 0)
(-0.133896 -0.181258 0)
(-0.060907 -0.0724213 0)
(-0.0200563 -0.00019926 0)
(-0.00226834 0.036944 0)
(0.00246997 0.0446306 0)
(0.000940054 0.0247546 0)
(-0.00528804 0.0532763 0)
(-0.0394218 0.123914 0)
(-0.0836896 0.191437 0)
(-0.134991 0.265064 0)
(-0.191452 0.341492 0)
(-0.250772 0.414569 0)
(-0.309536 0.477999 0)
(-0.364148 0.526488 0)
(-0.411575 0.556733 0)
(-0.449831 0.56783 0)
(-0.478163 0.561068 0)
(-0.497048 0.539373 0)
(-0.507983 0.506585 0)
(-0.513095 0.466687 0)
(-0.514644 0.423141 0)
(-0.514587 0.378466 0)
(-0.514314 0.334146 0)
(-0.514594 0.290795 0)
(-0.515696 0.248451 0)
(-0.517572 0.206875 0)
(-0.520028 0.165754 0)
(-0.522847 0.124819 0)
(-0.525849 0.0838822 0)
(-0.528891 0.0428261 0)
(-0.531885 0.00159122 0)
(-0.534837 -0.0398341 0)
(-0.537767 -0.0814346 0)
(-0.540662 -0.123185 0)
(-0.543579 -0.165053 0)
(-0.546636 -0.207022 0)
(-0.550056 -0.249144 0)
(-0.55423 -0.291622 0)
(-0.559775 -0.3349 0)
(-0.567535 -0.379747 0)
(-0.578366 -0.427221 0)
(-0.592628 -0.478309 0)
(-0.609318 -0.533033 0)
(-0.625005 -0.589044 0)
(-0.633119 -0.640144 0)
(-0.62443 -0.675659 0)
(-0.589326 -0.681727 0)
(-0.521656 -0.645156 0)
(-0.422905 -0.559375 0)
(-0.304686 -0.430477 0)
(-0.187303 -0.279818 0)
(-0.0928424 -0.138947 0)
(-0.0339621 -0.0351831 0)
(-0.00650284 0.0231748 0)
(0.00201267 0.0423138 0)
(0.00111654 0.0264179 0)
(-0.00577013 0.0766352 0)
(-0.0425952 0.164815 0)
(-0.0890397 0.240331 0)
(-0.141395 0.31932 0)
(-0.197311 0.398893 0)
(-0.254124 0.472051 0)
(-0.308357 0.5321 0)
(-0.356713 0.57409 0)
(-0.39672 0.595633 0)
(-0.427103 0.59703 0)
(-0.447902 0.580825 0)
(-0.460341 0.551034 0)
(-0.466479 0.512216 0)
(-0.468685 0.468578 0)
(-0.469102 0.423327 0)
(-0.469291 0.378419 0)
(-0.470117 0.334691 0)
(-0.47186 0.292216 0)
(-0.474431 0.250685 0)
(-0.477579 0.209698 0)
(-0.481045 0.168922 0)
(-0.484629 0.128135 0)
(-0.488209 0.0872118 0)
(-0.491708 0.0460955 0)
(-0.49509 0.00476937 0)
(-0.498388 -0.036757 0)
(-0.501627 -0.0784604 0)
(-0.504775 -0.120312 0)
(-0.507827 -0.162257 0)
(-0.510781 -0.204229 0)
(-0.51367 -0.246169 0)
(-0.516632 -0.288073 0)
(-0.520011 -0.330088 0)
(-0.524455 -0.372678 0)
(-0.530974 -0.416794 0)
(-0.540782 -0.463891 0)
(-0.554729 -0.515512 0)
(-0.572141 -0.572113 0)
(-0.589327 -0.631084 0)
(-0.598605 -0.684618 0)
(-0.589024 -0.718922 0)
(-0.549561 -0.716441 0)
(-0.474257 -0.661746 0)
(-0.367337 -0.549921 0)
(-0.245332 -0.394019 0)
(-0.133347 -0.22607 0)
(-0.054041 -0.0858276 0)
(-0.0133498 0.00164183 0)
(0.000773491 0.0372237 0)
(0.00125396 0.0277877 0)
(-0.00581426 0.101333 0)
(-0.043824 0.207361 0)
(-0.0909263 0.290032 0)
(-0.142765 0.372993 0)
(-0.196615 0.45397 0)
(-0.249639 0.525369 0)
(-0.298503 0.580415 0)
(-0.340342 0.614774 0)
(-0.373305 0.627148 0)
(-0.396835 0.619125 0)
(-0.411682 0.594478 0)
(-0.419643 0.558146 0)
(-0.423064 0.515108 0)
(-0.424246 0.469445 0)
(-0.424964 0.423824 0)
(-0.426257 0.379502 0)
(-0.428484 0.336694 0)
(-0.431562 0.295059 0)
(-0.435207 0.254107 0)
(-0.439125 0.213422 0)
(-0.443098 0.172736 0)
(-0.447009 0.131913 0)
(-0.450818 0.0909005 0)
(-0.454513 0.0496852 0)
(-0.458099 0.00827072 0)
(-0.461638 -0.033333 0)
(-0.465167 -0.0751113 0)
(-0.468661 -0.117055 0)
(-0.472094 -0.159129 0)
(-0.475414 -0.201274 0)
(-0.478559 -0.243403 0)
(-0.481482 -0.285405 0)
(-0.484225 -0.327207 0)
(-0.487042 -0.368901 0)
(-0.490576 -0.410967 0)
(-0.496002 -0.454537 0)
(-0.504904 -0.501524 0)
(-0.518585 -0.554126 0)
(-0.536572 -0.613196 0)
(-0.554616 -0.675394 0)
(-0.563468 -0.730291 0)
(-0.550148 -0.759758 0)
(-0.502615 -0.741943 0)
(-0.416551 -0.660296 0)
(-0.301073 -0.515038 0)
(-0.179326 -0.331217 0)
(-0.0805182 -0.154851 0)
(-0.0231573 -0.030455 0)
(-0.00128105 0.0280285 0)
(0.00137175 0.0284869 0)
(-0.00539717 0.126126 0)
(-0.0430519 0.250044 0)
(-0.0893686 0.339049 0)
(-0.139311 0.424658 0)
(-0.189894 0.505515 0)
(-0.238281 0.573712 0)
(-0.281423 0.622668 0)
(-0.31696 0.648865 0)
(-0.343665 0.652203 0)
(-0.361631 0.635563 0)
(-0.372169 0.603827 0)
(-0.377406 0.562604 0)
(-0.379701 0.516964 0)
(-0.38105 0.470563 0)
(-0.382736 0.425361 0)
(-0.38529 0.381917 0)
(-0.388697 0.33995 0)
(-0.392671 0.298883 0)
(-0.396891 0.258195 0)
(-0.401118 0.217545 0)
(-0.405228 0.176771 0)
(-0.409192 0.135821 0)
(-0.413033 0.0946944 0)
(-0.416782 0.0534009 0)
(-0.420464 0.0119454 0)
(-0.424149 -0.0296721 0)
(-0.42789 -0.0714505 0)
(-0.431671 -0.113405 0)
(-0.435468 -0.155529 0)
(-0.439238 -0.197799 0)
(-0.442901 -0.240152 0)
(-0.446342 -0.282478 0)
(-0.449436 -0.324624 0)
(-0.452124 -0.366444 0)
(-0.454577 -0.407959 0)
(-0.457439 -0.449665 0)
(-0.462048 -0.492953 0)
(-0.470372 -0.540326 0)
(-0.484143 -0.594727 0)
(-0.502854 -0.657178 0)
(-0.521124 -0.722737 0)
(-0.527445 -0.77677 0)
(-0.506676 -0.795261 0)
(-0.446856 -0.752069 0)
(-0.34771 -0.632538 0)
(-0.225978 -0.448176 0)
(-0.112341 -0.24256 0)
(-0.0364026 -0.0761137 0)
(-0.00422478 0.0132266 0)
(0.00146134 0.0281057 0)
(-0.00454352 0.149775 0)
(-0.0403715 0.291428 0)
(-0.0846087 0.386059 0)
(-0.131514 0.473171 0)
(-0.17796 0.552695 0)
(-0.22124 0.616694 0)
(-0.258682 0.658998 0)
(-0.288451 0.677038 0)
(-0.30989 0.671942 0)
(-0.323618 0.647816 0)
(-0.331305 0.610455 0)
(-0.335172 0.565847 0)
(-0.337363 0.518858 0)
(-0.339446 0.472519 0)
(-0.342212 0.428052 0)
(-0.3458 0.385422 0)
(-0.349974 0.344024 0)
(-0.354397 0.303208 0)
(-0.358806 0.262521 0)
(-0.363059 0.221739 0)
(-0.367123 0.180798 0)
(-0.371034 0.139706 0)
(-0.374851 0.0984884 0)
(-0.378618 0.0571588 0)
(-0.382361 0.0157119 0)
(-0.386146 -0.0258652 0)
(-0.390034 -0.0675835 0)
(-0.394014 -0.109476 0)
(-0.398072 -0.15156 0)
(-0.402186 -0.193843 0)
(-0.406299 -0.236307 0)
(-0.410312 -0.27889 0)
(-0.414067 -0.321465 0)
(-0.417373 -0.363829 0)
(-0.420086 -0.405753 0)
(-0.422298 -0.447193 0)
(-0.424675 -0.488712 0)
(-0.428788 -0.532082 0)
(-0.437044 -0.580601 0)
(-0.451508 -0.63804 0)
(-0.47115 -0.705054 0)
(-0.488571 -0.773452 0)
(-0.489252 -0.822017 0)
(-0.456301 -0.819405 0)
(-0.380105 -0.736994 0)
(-0.267979 -0.56845 0)
(-0.146942 -0.346004 0)
(-0.0534021 -0.137549 0)
(-0.00822345 -0.00881531 0)
(0.00147471 0.026188 0)
(-0.00331592 0.171137 0)
(-0.0359849 0.330215 0)
(-0.0770393 0.429955 0)
(-0.12002 0.517673 0)
(-0.161754 0.595004 0)
(-0.199759 0.654257 0)
(-0.231781 0.689822 0)
(-0.256481 0.700137 0)
(-0.273678 0.68753 0)
(-0.284356 0.657184 0)
(-0.290339 0.615578 0)
(-0.293738 0.568806 0)
(-0.296351 0.521309 0)
(-0.299292 0.475418 0)
(-0.302949 0.431682 0)
(-0.307211 0.389631 0)
(-0.311762 0.348503 0)
(-0.316312 0.307684 0)
(-0.32069 0.266839 0)
(-0.324849 0.225857 0)
(-0.32882 0.184745 0)
(-0.332673 0.143542 0)
(-0.336478 0.102276 0)
(-0.340278 0.0609517 0)
(-0.344086 0.0195504 0)
(-0.347958 -0.0219531 0)
(-0.351961 -0.0635778 0)
(-0.356087 -0.105369 0)
(-0.360323 -0.147356 0)
(-0.364663 -0.189567 0)
(-0.369078 -0.232021 0)
(-0.373507 -0.274707 0)
(-0.377835 -0.317565 0)
(-0.381873 -0.360445 0)
(-0.385371 -0.403084 0)
(-0.388104 -0.445167 0)
(-0.39012 -0.486596 0)
(-0.392177 -0.528097 0)
(-0.396182 -0.572073 0)
(-0.405049 -0.622934 0)
(-0.420936 -0.685198 0)
(-0.441453 -0.757865 0)
(-0.455923 -0.826679 0)
(-0.446323 -0.860829 0)
(-0.395696 -0.821483 0)
(-0.300773 -0.68319 0)
(-0.180773 -0.459508 0)
(-0.0736072 -0.215116 0)
(-0.0135235 -0.0398831 0)
(0.00139029 0.022253 0)
(-0.0018033 0.189232 0)
(-0.0301633 0.36529 0)
(-0.0671339 0.469851 0)
(-0.10554 0.557565 0)
(-0.142233 0.632203 0)
(-0.175007 0.686567 0)
(-0.202032 0.715699 0)
(-0.222404 0.719036 0)
(-0.236293 0.700006 0)
(-0.244879 0.664694 0)
(-0.249963 0.620023 0)
(-0.253403 0.571975 0)
(-0.256601 0.524452 0)
(-0.260273 0.479101 0)
(-0.264524 0.435929 0)
(-0.269124 0.394191 0)
(-0.273773 0.353092 0)
(-0.278263 0.312116 0)
(-0.282519 0.27105 0)
(-0.28656 0.229869 0)
(-0.290453 0.188622 0)
(-0.294274 0.147353 0)
(-0.298092 0.106081 0)
(-0.301942 0.0647965 0)
(-0.305825 0.0234668 0)
(-0.309784 -0.0179433 0)
(-0.313892 -0.0594566 0)
(-0.318147 -0.101128 0)
(-0.322525 -0.142993 0)
(-0.32703 -0.185091 0)
(-0.331647 -0.22746 0)
(-0.336348 -0.270127 0)
(-0.341066 -0.313091 0)
(-0.34567 -0.356287 0)
(-0.349942 -0.399531 0)
(-0.353574 -0.442484 0)
(-0.356279 -0.48473 0)
(-0.358106 -0.526166 0)
(-0.360018 -0.56789 0)
(-0.364434 -0.613352 0)
(-0.374804 -0.668429 0)
(-0.392817 -0.737797 0)
(-0.413282 -0.816136 0)
(-0.420834 -0.878763 0)
(-0.394599 -0.882557 0)
(-0.321471 -0.78489 0)
(-0.210267 -0.576009 0)
(-0.09542 -0.306774 0)
(-0.0203498 -0.0816535 0)
(0.00125042 0.0158169 0)
(-0.000109818 0.203283 0)
(-0.0232133 0.395728 0)
(-0.0553901 0.505074 0)
(-0.0887731 0.59247 0)
(-0.120283 0.664247 0)
(-0.148003 0.713922 0)
(-0.170507 0.737226 0)
(-0.187238 0.734528 0)
(-0.198595 0.710215 0)
(-0.205795 0.671076 0)
(-0.210477 0.624274 0)
(-0.214172 0.575536 0)
(-0.217906 0.528196 0)
(-0.222081 0.483311 0)
(-0.226638 0.440488 0)
(-0.231322 0.398841 0)
(-0.235896 0.357618 0)
(-0.240242 0.316419 0)
(-0.244353 0.275132 0)
(-0.248289 0.233791 0)
(-0.252125 0.192456 0)
(-0.255933 0.151165 0)
(-0.259774 0.109922 0)
(-0.263679 0.0687032 0)
(-0.267639 0.0274661 0)
(-0.27168 -0.0138339 0)
(-0.275891 -0.055221 0)
(-0.280276 -0.0967599 0)
(-0.284794 -0.13849 0)
(-0.289452 -0.180458 0)
(-0.294242 -0.22271 0)
(-0.299147 -0.265291 0)
(-0.304135 -0.308239 0)
(-0.30913 -0.351559 0)
(-0.313986 -0.39517 0)
(-0.318445 -0.438833 0)
(-0.322141 -0.482102 0)
(-0.324745 -0.524458 0)
(-0.326394 -0.565916 0)
(-0.328449 -0.608333 0)
(-0.334052 -0.656843 0)
(-0.347018 -0.718988 0)
(-0.367344 -0.797697 0)
(-0.384961 -0.878306 0)
(-0.379076 -0.92021 0)
(-0.329138 -0.868437 0)
(-0.232673 -0.688493 0)
(-0.116684 -0.40853 0)
(-0.0287026 -0.135276 0)
(0.00111743 0.00636799 0)
(0.00165482 0.212731 0)
(-0.0154512 0.420797 0)
(-0.0422904 0.535131 0)
(-0.0703642 0.622179 0)
(-0.0966747 0.691212 0)
(-0.119582 0.736672 0)
(-0.138021 0.754964 0)
(-0.151699 0.747277 0)
(-0.161114 0.718786 0)
(-0.167401 0.676796 0)
(-0.171942 0.628557 0)
(-0.175921 0.579474 0)
(-0.180036 0.532359 0)
(-0.184477 0.487795 0)
(-0.189109 0.445126 0)
(-0.193708 0.403417 0)
(-0.198116 0.361995 0)
(-0.202284 0.320566 0)
(-0.206252 0.279092 0)
(-0.210094 0.237638 0)
(-0.213882 0.196261 0)
(-0.217678 0.154984 0)
(-0.221535 0.113797 0)
(-0.225485 0.0726673 0)
(-0.229512 0.031544 0)
(-0.233626 -0.00962625 0)
(-0.237936 -0.0508678 0)
(-0.242456 -0.0922577 0)
(-0.247126 -0.13384 0)
(-0.251952 -0.175664 0)
(-0.256924 -0.217781 0)
(-0.262032 -0.260245 0)
(-0.267255 -0.303113 0)
(-0.272552 -0.346433 0)
(-0.277837 -0.390206 0)
(-0.282934 -0.434316 0)
(-0.287537 -0.478431 0)
(-0.29122 -0.521959 0)
(-0.293655 -0.564313 0)
(-0.295221 -0.605905 0)
(-0.297957 -0.650058 0)
(-0.3059 -0.704413 0)
(-0.32251 -0.777458 0)
(-0.343823 -0.865692 0)
(-0.352685 -0.937173 0)
(-0.324581 -0.931442 0)
(-0.24647 -0.791093 0)
(-0.135345 -0.515337 0)
(-0.0381915 -0.200522 0)
(0.000968978 -0.00656308 0)
(0.00338467 0.217266 0)
(-0.00718603 0.43991 0)
(-0.0282833 0.55968 0)
(-0.050876 0.646606 0)
(-0.0720482 0.713245 0)
(-0.0903948 0.75516 0)
(-0.105165 0.76939 0)
(-0.116246 0.757792 0)
(-0.124136 0.726149 0)
(-0.129793 0.682119 0)
(-0.134292 0.632936 0)
(-0.138483 0.583684 0)
(-0.142801 0.536739 0)
(-0.147303 0.492342 0)
(-0.151842 0.449678 0)
(-0.156252 0.407821 0)
(-0.160443 0.366181 0)
(-0.164421 0.32455 0)
(-0.168245 0.282936 0)
(-0.171991 0.241413 0)
(-0.175723 0.200031 0)
(-0.179492 0.158797 0)
(-0.183347 0.117691 0)
(-0.187323 0.0766729 0)
(-0.191403 0.0356881 0)
(-0.195574 -0.0053256 0)
(-0.199973 -0.0463954 0)
(-0.204635 -0.087611 0)
(-0.209472 -0.129023 0)
(-0.214486 -0.170685 0)
(-0.219668 -0.212651 0)
(-0.225005 -0.254977 0)
(-0.230481 -0.297731 0)
(-0.236071 -0.340983 0)
(-0.241723 -0.384785 0)
(-0.247327 -0.429121 0)
(-0.252665 -0.473802 0)
(-0.257368 -0.518344 0)
(-0.260962 -0.561982 0)
(-0.263213 -0.604205 0)
(-0.264996 -0.646429 0)
(-0.269402 -0.694596 0)
(-0.281214 -0.759381 0)
(-0.301626 -0.846884 0)
(-0.319379 -0.937844 0)
(-0.309828 -0.973984 0)
(-0.251408 -0.879692 0)
(-0.149921 -0.622061 0)
(-0.0480855 -0.275631 0)
(0.00066473 -0.0234212 0)
(0.00493823 0.2167 0)
(0.00127697 0.452727 0)
(-0.0137683 0.578462 0)
(-0.0307895 0.665735 0)
(-0.0469166 0.730509 0)
(-0.0609284 0.769688 0)
(-0.0723391 0.780874 0)
(-0.0811483 0.76643 0)
(-0.0877789 0.73257 0)
(-0.0929476 0.687162 0)
(-0.0974053 0.637377 0)
(-0.101696 0.588025 0)
(-0.106053 0.541159 0)
(-0.110459 0.496792 0)
(-0.11479 0.454035 0)
(-0.118943 0.411994 0)
(-0.122888 0.370154 0)
(-0.126662 0.328361 0)
(-0.130331 0.286654 0)
(-0.133965 0.245104 0)
(-0.137621 0.203749 0)
(-0.141341 0.162585 0)
(-0.14517 0.121582 0)
(-0.14915 0.0806992 0)
(-0.153268 0.0398832 0)
(-0.157478 -0.000936406 0)
(-0.161952 -0.0418044 0)
(-0.166756 -0.08281 0)
(-0.171771 -0.124022 0)
(-0.176994 -0.165495 0)
(-0.182413 -0.207285 0)
(-0.188015 -0.249451 0)
(-0.193784 -0.292063 0)
(-0.1997 -0.335203 0)
(-0.205728 -0.378956 0)
(-0.211796 -0.42337 0)
(-0.217757 -0.468374 0)
(-0.223336 -0.513646 0)
(-0.228092 -0.558484 0)
(-0.231545 -0.601979 0)
(-0.233743 -0.644118 0)
(-0.236471 -0.688504 0)
(-0.244171 -0.745196 0)
(-0.26122 -0.826562 0)
(-0.282804 -0.927182 0)
(-0.287532 -0.997991 0)
(-0.248261 -0.952039 0)
(-0.159677 -0.724202 0)
(-0.0575517 -0.357839 0)
(-5.00302e-06 -0.0446321 0)
(0.00616057 0.21126 0)
(0.00957478 0.458805 0)
(0.000930032 0.591387 0)
(-0.010505 0.679578 0)
(-0.0216864 0.743157 0)
(-0.0315389 0.780483 0)
(-0.0398041 0.789673 0)
(-0.0465435 0.773419 0)
(-0.0520542 0.738187 0)
(-0.0567803 0.691952 0)
(-0.0611469 0.641806 0)
(-0.0654232 0.592364 0)
(-0.069685 0.545477 0)
(-0.0738791 0.501034 0)
(-0.0779228 0.458126 0)
(-0.0817733 0.415898 0)
(-0.0854456 0.37389 0)
(-0.0889942 0.331985 0)
(-0.0924863 0.290229 0)
(-0.0959838 0.248688 0)