/*--------------------------------*- C++ -*----------------------------------*\
  =========                 |
  \\      /  F ield         | OpenFOAM: The Open Source CFD Toolbox
   \\    /   O peration     | Website:  https://openfoam.org
    \\  /    A nd           | Version:  7
     \\/     M anipulation  |
\*---------------------------------------------------------------------------*/
FoamFile
{
    version     2.0;
    format      ascii;
    class       volScalarField;
    location    "50";
    object      p;
}
// * * * * * * * * * * * * * * * * * * * * * * * * * * * * * * * * * * * * * //

dimensions      [0 2 -2 0 0 0 0];

internalField   nonuniform List<scalar> 
2500
(
0.00099151
0.0022098
0.00237731
0.00220184
0.00187023
0.00142293
0.000892162
0.000297055
-0.000361054
-0.00109096
-0.00190478
-0.00281249
-0.00381801
-0.00491583
-0.00608818
-0.00730247
-0.0085095
-0.00964347
-0.0106244
-0.0113645
-0.0117776
-0.0117919
-0.0113633
-0.0104871
-0.00920714
-0.0076207
-0.00587739
-0.00416914
-0.00271394
-0.00172825
-0.00139626
-0.0018387
-0.00308435
-0.0050639
-0.00763022
-0.0105792
-0.0136837
-0.0167253
-0.0195225
-0.0219498
-0.0239436
-0.025495
-0.0266371
-0.0274297
-0.0279435
-0.0282459
-0.0283918
-0.0284177
-0.0283481
-0.0282382
0.00213071
0.00237302
0.00235267
0.00215357
0.0018287
0.00140756
0.000916339
0.000368124
-0.00023815
-0.000912517
-0.00166829
-0.00251663
-0.0034637
-0.00450822
-0.00563859
-0.00682938
-0.00803887
-0.00920747
-0.0102589
-0.0111044
-0.0116523
-0.0118211
-0.0115539
-0.0108341
-0.00969528
-0.00822403
-0.00656582
-0.00491529
-0.00349565
-0.00253041
-0.00221008
-0.00265955
-0.00390973
-0.00588758
-0.00843374
-0.0113417
-0.0143827
-0.0173348
-0.0200146
-0.0223039
-0.0241558
-0.0255784
-0.0266163
-0.0273348
-0.0278045
-0.0280893
-0.0282394
-0.0282846
-0.0282372
-0.0281262
0.00245573
0.00251173
0.00242467
0.00220584
0.00187869
0.00147557
0.00102056
0.000519832
-3.41689e-05
-0.000656068
-0.00136331
-0.00217319
-0.00309953
-0.00415009
-0.00532247
-0.00659903
-0.00794185
-0.00929012
-0.0105598
-0.0116488
-0.0124481
-0.0128578
-0.0128064
-0.0122671
-0.0112642
-0.00987719
-0.0082524
-0.00658611
-0.0051083
-0.0040526
-0.00362307
-0.00395871
-0.00510621
-0.0070073
-0.00950435
-0.0123701
-0.0153626
-0.0182576
-0.020864
-0.0230528
-0.024775
-0.026051
-0.0269437
-0.0275338
-0.0279021
-0.0281173
-0.0282291
-0.0282628
-0.0282104
-0.0280821
0.00276818
0.00276456
0.00263306
0.00237801
0.00203335
0.00163552
0.00120302
0.000734718
0.00021427
-0.000384104
-0.00109053
-0.0019361
-0.00294953
-0.00415213
-0.005551
-0.00713034
-0.00884542
-0.0106191
-0.0123442
-0.0138917
-0.0151262
-0.0159258
-0.0162051
-0.0159312
-0.0151199
-0.0138318
-0.0122064
-0.0104374
-0.00875978
-0.0074206
-0.00664566
-0.00660361
-0.00737472
-0.008934
-0.0111511
-0.013815
-0.0166698
-0.0194589
-0.021977
-0.0240873
-0.0257201
-0.0268823
-0.0276391
-0.0280859
-0.0283196
-0.0284225
-0.0284527
-0.0284355
-0.0283579
-0.0282124
0.00323589
0.00317024
0.00298232
0.00268198
0.0023097
0.00190084
0.00146721
0.000996434
0.000456683
-0.000196331
-0.00101363
-0.00204795
-0.00334688
-0.00494382
-0.00684711
-0.00903073
-0.0114287
-0.0139351
-0.0164108
-0.0186946
-0.0206209
-0.0220418
-0.022854
-0.0230141
-0.0225231
-0.0214071
-0.0197818
-0.017831
-0.0157885
-0.0139138
-0.0124611
-0.0116437
-0.0116
-0.0123677
-0.0138754
-0.0159539
-0.0183668
-0.0208536
-0.023176
-0.0251547
-0.0266954
-0.0277836
-0.0284613
-0.0288115
-0.0289385
-0.0289376
-0.0288805
-0.0288044
-0.0286945
-0.0285438
0.00386434
0.00372683
0.00347701
0.0031279
0.00271756
0.00227364
0.00179647
0.00125577
0.000596579
-0.000252147
-0.00136939
-0.0028326
-0.00470562
-0.00702516
-0.00978867
-0.012947
-0.0164025
-0.0200139
-0.023605
-0.0269786
-0.0299318
-0.0322809
-0.0338897
-0.0346931
-0.034681
-0.0338475
-0.0322567
-0.0300748
-0.027523
-0.0248638
-0.0223761
-0.0203235
-0.0189199
-0.0182973
-0.0184836
-0.0193974
-0.0208625
-0.0226424
-0.0244864
-0.0261758
-0.0275579
-0.0285609
-0.0291934
-0.0295125
-0.0295994
-0.0295472
-0.0294378
-0.0293196
-0.0291955
-0.0290531
0.00463867
0.00442218
0.0041092
0.00370719
0.00324054
0.00272148
0.00213018
0.00140989
0.000474524
-0.000780119
-0.00246334
-0.00467388
-0.00748319
-0.0109193
-0.0149563
-0.0195101
-0.024442
-0.0295661
-0.0346625
-0.0394894
-0.0438011
-0.0473689
-0.0500138
-0.0516413
-0.0522354
-0.0517964
-0.0503174
-0.047932
-0.0448312
-0.0412599
-0.037498
-0.0338427
-0.0305778
-0.0279433
-0.0261011
-0.0251104
-0.0249183
-0.0253711
-0.0262474
-0.027305
-0.0283298
-0.0291683
-0.0297461
-0.0300682
-0.0301786
-0.030144
-0.03004
-0.0299248
-0.0298077
-0.0296903
0.00551639
0.00521364
0.00483746
0.00437365
0.00381915
0.0031611
0.00234998
0.00129395
-0.000130382
-0.00206269
-0.00463919
-0.00797127
-0.0121245
-0.0171036
-0.0228436
-0.0292106
-0.0360083
-0.0429926
-0.0498874
-0.0564036
-0.0622554
-0.0671794
-0.0709616
-0.0734784
-0.0747229
-0.0747404
-0.0734763
-0.0710123
-0.0674939
-0.0631151
-0.0581178
-0.052785
-0.0474299
-0.0423722
-0.0379086
-0.0342736
-0.0316051
-0.0299193
-0.0291087
-0.0289689
-0.0292473
-0.0296999
-0.0301371
-0.0304531
-0.0306227
-0.0306653
-0.0306296
-0.0305632
-0.0304888
-0.0304069
0.00641056
0.00602014
0.00557986
0.00503411
0.00434101
0.00345245
0.00228017
0.000690698
-0.00147997
-0.00440368
-0.00823458
-0.0130818
-0.0189876
-0.0259119
-0.033728
-0.042227
-0.0511334
-0.0601274
-0.0688722
-0.0770388
-0.084325
-0.090466
-0.0952472
-0.0985394
-0.100351
-0.10079
-0.0998221
-0.0974687
-0.0938196
-0.0889922
-0.0831459
-0.0764905
-0.0692926
-0.0618776
-0.0546149
-0.047891
-0.0420607
-0.0373918
-0.0340104
-0.0318727
-0.0307783
-0.0304263
-0.0304968
-0.0307258
-0.0309504
-0.0311058
-0.0311872
-0.0312192
-0.0312095
-0.0311731
0.00719643
0.00671822
0.00620664
0.00554485
0.00464188
0.00340571
0.00170235
-0.000647163
-0.0038449
-0.00808676
-0.0135289
-0.0202579
-0.0282656
-0.0374377
-0.0475525
-0.0582972
-0.0692957
-0.0801468
-0.0904639
-0.0999071
-0.1082
-0.115128
-0.12053
-0.12431
-0.126489
-0.127222
-0.126568
-0.124496
-0.121045
-0.116252
-0.110176
-0.10291
-0.0946025
-0.0854832
-0.075881
-0.0662262
-0.0570283
-0.0488136
-0.0420345
-0.0369666
-0.033635
-0.0318111
-0.0310912
-0.031025
-0.0312391
-0.0315093
-0.0317387
-0.0318971
-0.0319793
-0.0319913
0.00770437
0.00714606
0.00654656
0.00572034
0.00451875
0.00280001
0.000380045
-0.0029645
-0.00746687
-0.0133313
-0.0206944
-0.0295898
-0.0399248
-0.0514718
-0.0638809
-0.0767121
-0.0894853
-0.101736
-0.113065
-0.123169
-0.131849
-0.13899
-0.144531
-0.148443
-0.150761
-0.151641
-0.151241
-0.149521
-0.146479
-0.1421
-0.136363
-0.129252
-0.120772
-0.11099
-0.100075
-0.0883507
-0.0763141
-0.0646305
-0.0540508
-0.0452675
-0.0387344
-0.0345298
-0.0323379
-0.0315766
-0.031612
-0.0319548
-0.0323362
-0.0326441
-0.0328252
-0.0328923
0.00774657
0.00710844
0.00639912
0.00535047
0.00375233
0.00141021
-0.00190968
-0.00646993
-0.0125209
-0.0202545
-0.0297571
-0.0409732
-0.0536844
-0.0675141
-0.0819612
-0.0964597
-0.110453
-0.123463
-0.135137
-0.145263
-0.15376
-0.160632
-0.16593
-0.1697
-0.171997
-0.172938
-0.172693
-0.171268
-0.168643
-0.164793
-0.159665
-0.153182
-0.14525
-0.135783
-0.124751
-0.112244
-0.0985615
-0.0842765
-0.0702432
-0.0574933
-0.0470095
-0.0394321
-0.0348371
-0.0327221
-0.0322366
-0.0325351
-0.0330489
-0.0335075
-0.0338052
-0.0339324
0.00711835
0.00641037
0.00556214
0.00422718
0.00213427
-0.000963347
-0.00534606
-0.0113043
-0.0190873
-0.0288463
-0.040583
-0.0541126
-0.0690546
-0.0848615
-0.100885
-0.116467
-0.131037
-0.144174
-0.155635
-0.165342
-0.173334
-0.179723
-0.184631
-0.18816
-0.190378
-0.191353
-0.191186
-0.189928
-0.18758
-0.184128
-0.179534
-0.173725
-0.166583
-0.157948
-0.147645
-0.135534
-0.121612
-0.106145
-0.0897889
-0.0736332
-0.0590524
-0.047357
-0.0393372
-0.0349468
-0.0333515
-0.0333548
-0.0339403
-0.0345554
-0.0349745
-0.0351788
0.00565119
0.00486777
0.00385127
0.00216983
-0.000504351
-0.00446729
-0.0100374
-0.0175182
-0.0271337
-0.0389641
-0.0528897
-0.0685618
-0.0854165
-0.102739
-0.119769
-0.135825
-0.150399
-0.163199
-0.174136
-0.183267
-0.19073
-0.196686
-0.201281
-0.204627
-0.206789
-0.207798
-0.207675
-0.206474
-0.204226
-0.200941
-0.19662
-0.19123
-0.184693
-0.176866
-0.167539
-0.15645
-0.143346
-0.128116
-0.11099
-0.0927382
-0.0747512
-0.0588199
-0.0465873
-0.0388764
-0.0353119
-0.0345597
-0.0350784
-0.0358337
-0.0364026
-0.0367043
0.00319807
0.00234812
0.00113297
-0.000946987
-0.0042694
-0.00917348
-0.016005
-0.0250613
-0.0365165
-0.0503481
-0.0662839
-0.0837908
-0.102122
-0.120428
-0.137903
-0.153918
-0.168102
-0.180337
-0.190689
-0.199323
-0.206423
-0.212149
-0.216616
-0.219907
-0.222074
-0.22313
-0.223051
-0.221853
-0.219582
-0.216279
-0.211971
-0.206678
-0.200385
-0.193019
-0.184429
-0.174361
-0.162468
-0.148377
-0.131864
-0.113138
-0.0931508
-0.0737021
-0.0570721
-0.0451683
-0.038602
-0.0363754
-0.036547
-0.0374106
-0.0381436
-0.0385781
-0.000301669
-0.00122912
-0.00266464
-0.00517818
-0.0091878
-0.0150674
-0.0231759
-0.0337852
-0.046994
-0.0626513
-0.0803128
-0.0992581
-0.118584
-0.137362
-0.154814
-0.17044
-0.184048
-0.195695
-0.205572
-0.213902
-0.220866
-0.226579
-0.231101
-0.234464
-0.236696
-0.237815
-0.237788
-0.236585
-0.234252
-0.23084
-0.226397
-0.220975
-0.214612
-0.207316
-0.199033
-0.189604
-0.178735
-0.165987
-0.150858
-0.133009
-0.112683
-0.0911411
-0.0707472
-0.0543075
-0.0437792
-0.0391472
-0.0384834
-0.0393451
-0.0402748
-0.0408747
-0.00486274
-0.00585775
-0.00752978
-0.0104952
-0.0152011
-0.0220466
-0.0313894
-0.0434574
-0.0582534
-0.0754804
-0.0945171
-0.114473
-0.134333
-0.153157
-0.170266
-0.18533
-0.198346
-0.209513
-0.219098
-0.227328
-0.234344
-0.240201
-0.244898
-0.248415
-0.250756
-0.251945
-0.25197
-0.250773
-0.248382
-0.244854
-0.240239
-0.234601
-0.22801
-0.220525
-0.21218
-0.202936
-0.192631
-0.18092
-0.167256
-0.150987
-0.131682
-0.109735
-0.0869312
-0.0663798
-0.0513255
-0.0433017
-0.0410947
-0.0417505
-0.0428646
-0.0436711
-0.0103937
-0.0114657
-0.0133766
-0.0167899
-0.0221696
-0.0299292
-0.0404115
-0.0537847
-0.0699421
-0.0884349
-0.108475
-0.129035
-0.149042
-0.167608
-0.184199
-0.198673
-0.211188
-0.222039
-0.231512
-0.2398
-0.246986
-0.253063
-0.25798
-0.261682
-0.264152
-0.265415
-0.265484
-0.264295
-0.261865
-0.258244
-0.253481
-0.247641
-0.240797
-0.233033
-0.224433
-0.21505
-0.204862
-0.193692
-0.181124
-0.166466
-0.148897
-0.127967
-0.104438
-0.0809413
-0.0614585
-0.0492755
-0.0446711
-0.0447248
-0.0460119
-0.0470544
-0.0167626
-0.017896
-0.0200398
-0.02388
-0.0298844
-0.038471
-0.0499565
-0.0644395
-0.0816983
-0.101139
-0.121829
-0.142646
-0.162513
-0.180641
-0.196664
-0.210613
-0.222765
-0.233458
-0.242958
-0.2514
-0.258807
-0.265119
-0.270252
-0.27413
-0.276729
-0.278068
-0.278167
-0.276982
-0.27452
-0.270828
-0.265952
-0.259954
-0.252904
-0.244885
-0.235994
-0.226335
-0.215983
-0.204923
-0.192941
-0.179507
-0.163737
-0.144641
-0.121913
-0.0970812
-0.0739992
-0.0573617
-0.0495168
-0.0484374
-0.0498036
-0.0511076
-0.0237496
-0.0249448
-0.0273017
-0.0315294
-0.0380865
-0.0473863
-0.0597112
-0.0750856
-0.0931777
-0.113263
-0.134297
-0.155103
-0.174646
-0.192262
-0.207751
-0.221284
-0.233213
-0.243874
-0.253486
-0.262124
-0.269755
-0.276284
-0.281606
-0.285638
-0.288353
-0.289764
-0.289886
-0.288695
-0.286198
-0.282442
-0.277474
-0.271356
-0.264155
-0.255944
-0.246816
-0.236882
-0.226266
-0.215063
-0.203248
-0.190528
-0.176195
-0.159112
-0.138192
-0.113641
-0.0883444
-0.0676009
-0.0559151
-0.0530326
-0.0543286
-0.0559069
-0.0311234
-0.0323559
-0.0348994
-0.0394646
-0.0464882
-0.0563712
-0.069358
-0.0854014
-0.10407
-0.124533
-0.145666
-0.166278
-0.185403
-0.20251
-0.217543
-0.230779
-0.242598
-0.253311
-0.263077
-0.271915
-0.279748
-0.286463
-0.291945
-0.296109
-0.298924
-0.300399
-0.300542
-0.29934
-0.296799
-0.292975
-0.287919
-0.281698
-0.274381
-0.266036
-0.256743
-0.246601
-0.235743
-0.224314
-0.21242
-0.199992
-0.186598
-0.171253
-0.152532
-0.12951
-0.103601
-0.0796991
-0.0639906
-0.0586851
-0.0596321
-0.0615002
-0.0386078
-0.0398641
-0.0425575
-0.0474003
-0.0547952
-0.0651249
-0.0785953
-0.0950952
-0.114111
-0.134732
-0.155785
-0.176094
-0.194775
-0.211422
-0.226095
-0.239135
-0.250925
-0.261734
-0.271665
-0.280685
-0.288693
-0.295564
-0.301181
-0.305459
-0.308363
-0.309896
-0.310059
-0.308842
-0.306252
-0.302348
-0.297201
-0.29088
-0.283462
-0.275017
-0.265615
-0.25534
-0.244311
-0.232682
-0.220624
-0.208231
-0.195339
-0.181266
-0.164638
-0.143844
-0.11877
-0.0930676
-0.0736892
-0.0654666
-0.0657366
-0.0678976
-0.04595
-0.0471962
-0.0499992
-0.0550566
-0.0627258
-0.0733674
-0.087152
-0.103916
-0.123085
-0.143693
-0.164548
-0.184506
-0.202765
-0.219024
-0.233427
-0.246349
-0.258158
-0.269077
-0.27916
-0.28834
-0.296494
-0.303495
-0.309228
-0.313609
-0.316597
-0.318184
-0.318367
-0.317132
-0.314492
-0.310503
-0.305254
-0.29883
-0.291314
-0.282785
-0.273308
-0.262955
-0.251827
-0.240065
-0.227859
-0.215395
-0.202715
-0.18946
-0.174546
-0.156154
-0.132965
-0.106923
-0.0846895
-0.073379
-0.0726211
-0.0750377
-0.0528982
-0.054105
-0.0569723
-0.0621788
-0.0700274
-0.0808532
-0.0947976
-0.111659
-0.130822
-0.151294
-0.171884
-0.191487
-0.209375
-0.225324
-0.239534
-0.252389
-0.264237
-0.275259
-0.285472
-0.294783
-0.30306
-0.310172
-0.316007
-0.32048
-0.323546
-0.325189
-0.325395
-0.324138
-0.321447
-0.317374
-0.312017
-0.305486
-0.297873
-0.289264
-0.27973
-0.269333
-0.258158
-0.246329
-0.234032
-0.221489
-0.208874
-0.196097
-0.182446
-0.166262
-0.145517
-0.120432
-0.0964847
-0.0822505
-0.0801887
-0.082767
-0.0592538
-0.060371
-0.0632589
-0.0685496
-0.0764874
-0.0873802
-0.101347
-0.118164
-0.137197
-0.157449
-0.177744
-0.197018
-0.214599
-0.230315
-0.244392
-0.257212
-0.269098
-0.280202
-0.290515
-0.299929
-0.308307
-0.315515
-0.32144
-0.325996
-0.329134
-0.33083
-0.331063
-0.329788
-0.327043
-0.322889
-0.317428
-0.310786
-0.303077
-0.294393
-0.284809
-0.274386
-0.263195
-0.251346
-0.239012
-0.226426
-0.213831
-0.201326
-0.188545
-0.174189
-0.156015
-0.132839
-0.108409
-0.0917693
-0.088238
-0.0908367
-0.06485
-0.0658288
-0.0686852
-0.0739994
-0.081941
-0.092793
-0.106662
-0.123315
-0.142122
-0.162099
-0.182096
-0.201086
-0.218431
-0.233983
-0.247973
-0.260773
-0.272685
-0.283841
-0.294221
-0.303709
-0.312165
-0.319452
-0.325456
-0.330087
-0.333289
-0.335034
-0.335296
-0.334009
-0.33121
-0.326976
-0.321417
-0.314669
-0.306865
-0.29811
-0.288481
-0.27804
-0.266849
-0.255006
-0.242673
-0.230084
-0.217514
-0.205181
-0.192985
-0.18004
-0.164262
-0.143544
-0.119768
-0.101478
-0.096461
-0.0989311
-0.069568
-0.0703689
-0.0731277
-0.0784069
-0.0862795
-0.0969941
-0.110654
-0.127039
-0.14554
-0.165204
-0.184916
-0.203676
-0.220857
-0.236309
-0.250251
-0.263036
-0.274953
-0.28613
-0.296543
-0.306076
-0.314585
-0.321933
-0.328002
-0.332697
-0.335956
-0.337743
-0.338033
-0.336745
-0.333892
-0.329574
-0.32392
-0.317073
-0.309178
-0.300356
-0.290687
-0.280231
-0.269046
-0.25722
-0.244907
-0.23234
-0.219814
-0.207612
-0.195821
-0.183923
-0.170205
-0.152134
-0.129908
-0.110844
-0.10448
-0.106703
-0.0733367
-0.0739275
-0.0765232
-0.0816974
-0.0894301
-0.0999233
-0.113284
-0.129317
-0.147449
-0.166774
-0.186216
-0.204792
-0.221869
-0.237273
-0.251195
-0.263972
-0.275883
-0.287056
-0.297473
-0.307022
-0.315558
-0.322944
-0.329058
-0.333805
-0.337113
-0.338934
-0.339244
-0.337954
-0.33504
-0.330632
-0.324885
-0.317949
-0.309974
-0.301092
-0.291389
-0.280917
-0.269732
-0.25792
-0.245628
-0.233091
-0.220617
-0.208532
-0.197041
-0.185911
-0.17387
-0.158364
-0.138286
-0.119324
-0.111904
-0.113811
-0.0761313
-0.0764975
-0.0788675
-0.0838622
-0.0913875
-0.101586
-0.114563
-0.130155
-0.14784
-0.166772
-0.185922
-0.204332
-0.221354
-0.236774
-0.250734
-0.263537
-0.275448
-0.286603
-0.296999
-0.30654
-0.315085
-0.322495
-0.328645
-0.333432
-0.336772
-0.338605
-0.338905
-0.337588
-0.334611
-0.330119
-0.324291
-0.317286
-0.309249
-0.300313
-0.290572
-0.280078
-0.268879
-0.257062
-0.244777
-0.232259
-0.219831
-0.207849
-0.196594
-0.186034
-0.175307
-0.162122
-0.144507
-0.126414
-0.118348
-0.119942
-0.0779817
-0.0781123
-0.080205
-0.0849439
-0.0921923
-0.102024
-0.114536
-0.129596
-0.146745
-0.165208
-0.184024
-0.202264
-0.219266
-0.234758
-0.248813
-0.261682
-0.273608
-0.284733
-0.295076
-0.304563
-0.313072
-0.320468
-0.326623
-0.331427
-0.334785
-0.33663
-0.336932
-0.33561
-0.332595
-0.328047
-0.322171
-0.315128
-0.307051
-0.298068
-0.288275
-0.277732
-0.266487
-0.254628
-0.242315
-0.229792
-0.217388
-0.205486
-0.19442
-0.184291
-0.174574
-0.163388
-0.148305
-0.131692
-0.123488
-0.124816
-0.0789456
-0.0788554
-0.0806263
-0.0850276
-0.0919194
-0.101307
-0.113267
-0.1277
-0.144217
-0.16213
-0.180556
-0.198609
-0.215609
-0.23122
-0.245428
-0.258413
-0.270388
-0.281493
-0.29177
-0.301174
-0.309606
-0.316947
-0.323071
-0.32786
-0.331216
-0.333062
-0.33336
-0.332049
-0.329033
-0.32446
-0.318565
-0.311516
-0.303429
-0.294413
-0.284561
-0.273941
-0.262605
-0.250646
-0.238243
-0.225661
-0.213246
-0.201393
-0.190472
-0.180672
-0.171721
-0.162193
-0.149544
-0.134822
-0.127009
-0.128183
-0.0791295
-0.0788318
-0.0802522
-0.0842349
-0.0906794
-0.0995358
-0.11085
-0.124555
-0.140334
-0.1576
-0.175561
-0.193384
-0.210382
-0.226146
-0.240566
-0.253732
-0.265807
-0.276929
-0.287158
-0.296481
-0.30483
-0.312099
-0.31817
-0.322925
-0.32626
-0.328091
-0.328377
-0.327078
-0.324092
-0.319529
-0.313634
-0.306586
-0.298486
-0.289427
-0.279493
-0.268752
-0.25727
-0.245152
-0.232592
-0.219885
-0.2074
-0.19555
-0.184727
-0.175174
-0.166796
-0.1586
-0.148157
-0.135551
-0.128664
-0.129793
-0.0786439
-0.0781798
-0.0792338
-0.082719
-0.0886159
-0.0968415
-0.10741
-0.120275
-0.1352
-0.151702
-0.169094
-0.18661
-0.203565
-0.219487
-0.23416
-0.247575
-0.259833
-0.271047
-0.281291
-0.290577
-0.298865
-0.306071
-0.312088
-0.316802
-0.320108
-0.321921
-0.322195
-0.320903
-0.31796
-0.313429
-0.307543
-0.300488
-0.292357
-0.283222
-0.273156
-0.262233
-0.250534
-0.238184
-0.225395
-0.21249
-0.199873
-0.187975
-0.177202
-0.16782
-0.159856
-0.152688
-0.144164
-0.133707
-0.128168
-0.129386
-0.0776342
-0.0770358
-0.077729
-0.0806534
-0.0858985
-0.0933833
-0.103093
-0.115
-0.12894
-0.14454
-0.161227
-0.178315
-0.19514
-0.21118
-0.226123
-0.239856
-0.252396
-0.263812
-0.274172
-0.283502
-0.291786
-0.298962
-0.304943
-0.309626
-0.31291
-0.314714
-0.314986
-0.313709
-0.310818
-0.306334
-0.300457
-0.293374
-0.285171
-0.275906
-0.265644
-0.254463
-0.242464
-0.229799
-0.216707
-0.203534
-0.190716
-0.178713
-0.16794
-0.158674
-0.150988
-0.144561
-0.137612
-0.129172
-0.125292
-0.126673
-0.076225
-0.0755469
-0.0759009
-0.0782196
-0.0827128
-0.0893371
-0.098066
-0.108886
-0.1217
-0.136241
-0.152058
-0.168558
-0.185119
-0.201193
-0.216388
-0.230484
-0.243401
-0.255144
-0.265748
-0.275238
-0.283612
-0.290831
-0.296828
-0.301517
-0.30481
-0.306629
-0.306922
-0.305674
-0.302841
-0.298405
-0.292524
-0.285372
-0.277041
-0.267578
-0.257043
-0.245524
-0.233142
-0.220081
-0.206614
-0.193109
-0.18003
-0.167863
-0.157036
-0.147832
-0.140322
-0.134359
-0.128625
-0.121916
-0.11974
-0.121373
-0.074558
-0.073837
-0.0738928
-0.0755904
-0.0792451
-0.0848849
-0.092499
-0.102094
-0.113632
-0.126951
-0.141716
-0.157444
-0.173572
-0.189552
-0.20493
-0.219391
-0.232754
-0.24494
-0.255929
-0.265725
-0.274323
-0.281701
-0.287808
-0.292578
-0.295935
-0.297812
-0.298157
-0.296953
-0.294169
-0.289765
-0.28385
-0.276581
-0.268054
-0.258319
-0.247436
-0.235502
-0.222666
-0.209142
-0.19524
-0.181357
-0.167972
-0.155591
-0.144655
-0.135448
-0.128038
-0.122266
-0.117366
-0.111961
-0.111276
-0.113191
-0.0727354
-0.0720221
-0.0718316
-0.072919
-0.07567
-0.0802036
-0.08656
-0.0947827
-0.104894
-0.116826
-0.130359
-0.145122
-0.160626
-0.176345
-0.191791
-0.206569
-0.220401
-0.233115
-0.244622
-0.254878
-0.263861
-0.271545
-0.277892
-0.282847
-0.286349
-0.288339
-0.28877
-0.287623
-0.284877
-0.28048
-0.274495
-0.26706
-0.258275
-0.248202
-0.236907
-0.224504
-0.211165
-0.197139
-0.182769
-0.168481
-0.154763
-0.142132
-0.131037
-0.121753
-0.114346
-0.108546
-0.10409
-0.0994396
-0.0995792
-0.101779
-0.0708614
-0.0701849
-0.0698094
-0.0703265
-0.0721367
-0.075454
-0.0804066
-0.0871052
-0.0956407
-0.106031
-0.118166
-0.131778
-0.146465
-0.161739
-0.1771
-0.192098
-0.206369
-0.219649
-0.231768
-0.24262
-0.252142
-0.260289
-0.267018
-0.27228
-0.276023
-0.278196
-0.278758
-0.277687
-0.274972
-0.270561
-0.264483
-0.256848
-0.247766
-0.237314
-0.225574
-0.212677
-0.198824
-0.184293
-0.169452
-0.154754
-0.140697
-0.127794
-0.116493
-0.107056
-0.0995328
-0.0935298
-0.0890973
-0.0845435
-0.0844342
-0.0865994
-0.0689943
-0.068392
-0.0678925
-0.0678956
-0.0687562
-0.0707666
-0.0741746
-0.0791973
-0.0860131
-0.094726
-0.10532
-0.117624
-0.131319
-0.145968
-0.161078
-0.176164
-0.190794
-0.204624
-0.217396
-0.228933
-0.239114
-0.24786
-0.255105
-0.260798
-0.264885
-0.267322
-0.268072
-0.267114
-0.264442
-0.260017
-0.253842
-0.246006
-0.236623
-0.22579
-0.213613
-0.200244
-0.185905
-0.170902
-0.155624
-0.140536
-0.126147
-0.112957
-0.101402
-0.0917261
-0.0839478
-0.0775824
-0.0727603
-0.0676055
-0.0657461
-0.0669836
-0.067187
-0.0666784
-0.066111
-0.0656635
-0.0655865
-0.066223
-0.0679615
-0.0711664
-0.0761325
-0.0830557
-0.0920026
-0.102885
-0.115456
-0.12933
-0.144034
-0.159066
-0.173946
-0.188259
-0.201669
-0.21392
-0.224831
-0.234269
-0.242139
-0.24837
-0.252903
-0.255692
-0.256702
-0.255913
-0.253322
-0.248907
-0.242665
-0.234663
-0.22502
-0.213854
-0.201296
-0.187519
-0.172768
-0.157365
-0.141709
-0.126271
-0.111561
-0.0980633
-0.0861888
-0.0761648
-0.0679744
-0.0610764
-0.0554596
-0.0490651
-0.0440015
-0.0424821
-0.0654493
-0.0650616
-0.0644695
-0.0636211
-0.0626236
-0.0618411
-0.0618115
-0.0630814
-0.0660945
-0.0711501
-0.0783907
-0.0877925
-0.0991651
-0.112168
-0.126351
-0.141206
-0.156221
-0.170925
-0.184913
-0.19786
-0.209515
-0.219693
-0.228257
-0.235108
-0.240174
-0.243399
-0.244748
-0.244199
-0.241753
-0.237404
-0.231155
-0.223063
-0.213244
-0.201839
-0.189001
-0.174925
-0.159869
-0.144165
-0.128214
-0.112477
-0.0974506
-0.0835997
-0.0713045
-0.0607653
-0.0519432
-0.044253
-0.0375133
-0.0293668
-0.0202751
-0.0134098
-0.0637833
-0.0635323
-0.06294
-0.0617116
-0.0597966
-0.0575648
-0.0557048
-0.0549668
-0.0559686
-0.0591269
-0.0646561
-0.0725816
-0.082751
-0.0948548
-0.10846
-0.123059
-0.138116
-0.15312
-0.167611
-0.1812
-0.193576
-0.204499
-0.213787
-0.22131
-0.226972
-0.230707
-0.232472
-0.232245
-0.230024
-0.225822
-0.219652
-0.211574
-0.2017
-0.190184
-0.177202
-0.162964
-0.147737
-0.131849
-0.115694
-0.09971
-0.0843583
-0.0700737
-0.0571937
-0.0458817
-0.0360763
-0.0271426
-0.0188514
-0.00835812
0.00444014
0.0198327
-0.0621614
-0.0620704
-0.061473
-0.0598339
-0.0569701
-0.0532665
-0.0495592
-0.0468053
-0.0458059
-0.0471021
-0.0509787
-0.057498
-0.0665291
-0.077777
-0.0908165
-0.105137
-0.120188
-0.135426
-0.15035
-0.16452
-0.177572
-0.189215
-0.199227
-0.207442
-0.213741
-0.218041
-0.22029
-0.220464
-0.218557
-0.214594
-0.208608
-0.200662
-0.190871
-0.179393
-0.16642
-0.152173
-0.136918
-0.120972
-0.104704
-0.0885128
-0.072808
-0.0579666
-0.0442674
-0.0318128
-0.0204846
-0.00955254
0.00117424
0.0154488
0.0315724
0.0598382
-0.060573
-0.0606489
-0.0600071
-0.0578653
-0.0539689
-0.048771
-0.0432537
-0.03856
-0.0356592
-0.0352098
-0.0375635
-0.042812
-0.0508335
-0.0613326
-0.0738807
-0.087959
-0.103004
-0.118448
-0.133758
-0.148455
-0.162133
-0.174459
-0.185173
-0.194077
-0.201028
-0.205927
-0.208712
-0.209353
-0.207847
-0.20422
-0.198522
-0.190827
-0.181253
-0.169962
-0.15715
-0.143045
-0.127901
-0.112015
-0.0957125
-0.0793356
-0.0632197
-0.0476557
-0.0328343
-0.0187565
-0.0051828
0.00881993
0.0236365
0.0447133
0.0663754
0.114585
-0.0590876
-0.0593022
-0.0585121
-0.0557101
-0.0506451
-0.0439232
-0.0366873
-0.0302217
-0.0256202
-0.0236319
-0.0246654
-0.0288388
-0.0360313
-0.0459381
-0.0581169
-0.0720362
-0.0871165
-0.102773
-0.118446
-0.133631
-0.147889
-0.160853
-0.172233
-0.181804
-0.189401
-0.19491
-0.19826
-0.199417
-0.198378
-0.195173
-0.18986
-0.182524
-0.173287
-0.162309
-0.149788
-0.135947
-0.121026
-0.105286
-0.0889964
-0.0724242
-0.0558064
-0.0393119
-0.0229927
-0.00668098
0.0100763
0.0285601
0.0496934
0.081418
0.114662
0.18899
-0.05809
-0.0582989
-0.0571007
-0.053372
-0.0469744
-0.0386886
-0.0298719
-0.0218906
-0.0158792
-0.0126385
-0.0126189
-0.0159602
-0.022541
-0.0320404
-0.0439983
-0.0578653
-0.0730468
-0.0889418
-0.104974
-0.120617
-0.135409
-0.148962
-0.16096
-0.171157
-0.179372
-0.185478
-0.189395
-0.191087
-0.190552
-0.187823
-0.182966
-0.176072
-0.167263
-0.156691
-0.144543
-0.131033
-0.116383
-0.100813
-0.0845328
-0.0677156
-0.0504728
-0.0328018
-0.0145234
0.00484559
0.0261693
0.0512964
0.0817783
0.127572
0.176758
0.26833
-0.0587892
-0.0585668
-0.0563639
-0.0511937
-0.0431872
-0.0333156
-0.0230645
-0.0138744
-0.00681532
-0.00265689
-0.00188649
-0.00466498
-0.0108654
-0.0201475
-0.0320331
-0.0459528
-0.0612995
-0.0774572
-0.09384
-0.109906
-0.12518
-0.139257
-0.151806
-0.162567
-0.171343
-0.177999
-0.182449
-0.184654
-0.184611
-0.182358
-0.17796
-0.171521
-0.163162
-0.153027
-0.141281
-0.128109
-0.11371
-0.0982715
-0.0819397
-0.0647931
-0.0467869
-0.0276793
-0.00690858
0.0166178
0.0446949
0.0805379
0.126912
0.194275
0.257645
0.344135
-0.0646171
-0.0623909
-0.0576925
-0.0501263
-0.0400359
-0.0284876
-0.016953
-0.00682675
0.000937043
0.00569426
0.00692875
0.00446153
-0.00156413
-0.0107912
-0.0227183
-0.0367648
-0.0523076
-0.0687267
-0.0854244
-0.101855
-0.117532
-0.132042
-0.145043
-0.156264
-0.165502
-0.172613
-0.177508
-0.180141
-0.180514
-0.178659
-0.174648
-0.168578
-0.160574
-0.15078
-0.139358
-0.126472
-0.112287
-0.0969352
-0.0804987
-0.0629515
-0.0440755
-0.0233108
0.000461806
0.0293544
0.0669637
0.119715
0.1947
0.304754
0.40391
0.522562
-0.0866162
-0.0756368
-0.0636737
-0.0515731
-0.0387767
-0.0254959
-0.0128426
-0.00185461
0.00657528
0.01173
0.0131745
0.010806
0.00480374
-0.00445116
-0.0164469
-0.0305937
-0.0462688
-0.0628497
-0.0797412
-0.0963951
-0.112324
-0.127109
-0.140403
-0.151929
-0.161478
-0.168899
-0.1741
-0.177033
-0.177697
-0.176124
-0.172385
-0.166576
-0.158821
-0.149261
-0.138048
-0.125338
-0.111271
-0.0959469
-0.0793824
-0.0614335
-0.041674
-0.0191781
0.00784712
0.0427901
0.0916425
0.165508
0.279835
0.461672
0.685032
1.04047
-0.170324
-0.0893319
-0.0549566
-0.0451504
-0.0339972
-0.020177
-0.00700399
0.00404207
0.0122735
0.0171045
0.0181733
0.0154257
0.0090768
-0.000470643
-0.0126977
-0.0270186
-0.0428219
-0.0594989
-0.0764684
-0.093194
-0.109197
-0.124065
-0.137452
-0.149084
-0.15875
-0.166299
-0.171635
-0.174712
-0.175525
-0.174109
-0.17053
-0.164887
-0.157298
-0.147902
-0.136844
-0.124269
-0.110297
-0.094994
-0.0783183
-0.0600229
-0.0395013
-0.0155115
0.0142955
0.0542782
0.112074
0.201856
0.346228
0.595994
1.00908
1.77543
)
;

boundaryField
{
    movingWall
    {
        type            zeroGradient;
    }
    fixedWalls
    {
        type            zeroGradient;
    }
    frontAndBack
    {
        type            empty;
    }
}


// ************************************************************************* //
