/*--------------------------------*- C++ -*----------------------------------*\
  =========                 |
  \\      /  F ield         | OpenFOAM: The Open Source CFD Toolbox
   \\    /   O peration     | Website:  https://openfoam.org
    \\  /    A nd           | Version:  7
     \\/     M anipulation  |
\*---------------------------------------------------------------------------*/
FoamFile
{
    version     2.0;
    format      ascii;
    class       surfaceScalarField;
    location    "50";
    object      phi;
}
// * * * * * * * * * * * * * * * * * * * * * * * * * * * * * * * * * * * * * //

dimensions      [0 3 -1 0 0 0 0];

internalField   nonuniform List<scalar> 
4900
(
-1.04495e-05
-1.354e-05
-2.08896e-07
-1.03974e-05
6.069e-06
-6.39651e-06
1.05592e-05
-4.60887e-06
1.35979e-05
-3.17143e-06
1.52808e-05
-1.83302e-06
1.58018e-05
-6.84957e-07
1.53509e-05
2.76121e-07
1.4021e-05
1.14748e-06
1.17876e-05
2.04395e-06
8.52604e-06
3.06979e-06
4.05321e-06
4.28306e-06
-1.83567e-06
5.70435e-06
-9.33067e-06
7.31529e-06
-1.85623e-05
9.05782e-06
-2.95658e-05
1.08339e-05
-4.22443e-05
1.2513e-05
-5.63361e-05
1.39283e-05
-7.13878e-05
1.48892e-05
-8.67483e-05
1.51975e-05
-0.000101587
1.46737e-05
-0.000114939
1.31853e-05
-0.000125781
1.06692e-05
-0.00013311
7.149e-06
-0.000136037
2.73923e-06
-0.000133885
-2.34506e-06
-0.000126332
-7.75239e-06
-0.000113453
-1.30815e-05
-9.57538e-05
-1.79067e-05
-7.41494e-05
-2.18139e-05
-4.99211e-05
-2.44399e-05
-2.46244e-05
-2.55066e-05
6.2274e-08
-2.48973e-05
2.24832e-05
-2.26288e-05
4.13101e-05
-1.90312e-05
5.56665e-05
-1.45453e-05
6.50266e-05
-9.53775e-06
6.93325e-05
-4.47259e-06
6.90145e-05
1.60285e-07
6.4924e-05
3.94102e-06
5.81257e-05
6.65932e-06
4.97015e-05
8.29463e-06
4.0621e-05
8.95934e-06
3.16407e-05
8.86699e-06
2.32641e-05
8.26979e-06
1.57726e-05
7.39222e-06
9.32939e-06
6.35015e-06
4.16927e-06
5.06389e-06
8.36988e-07
3.24568e-06
8.18007e-07
-3.53048e-06
-1.01897e-05
3.20749e-06
-1.74807e-05
1.25423e-05
-1.60432e-05
2.01757e-05
-1.25645e-05
2.48625e-05
-8.21451e-06
2.63618e-05
-3.72553e-06
2.4822e-05
4.27526e-07
2.04504e-05
4.19433e-06
1.33131e-05
7.8101e-06
3.27657e-06
1.15962e-05
-9.97958e-06
1.58433e-05
-2.68613e-05
2.0698e-05
-4.77262e-05
2.61211e-05
-7.27455e-05
3.19088e-05
-0.000101806
3.77115e-05
-0.000134422
4.30638e-05
-0.000169699
4.74196e-05
-0.000206343
5.02153e-05
-0.000242736
5.09347e-05
-0.000277061
4.91812e-05
-0.000307453
4.47268e-05
-0.000332155
3.7546e-05
-0.000349652
2.78171e-05
-0.000358761
1.58982e-05
-0.000358681
2.28294e-06
-0.000349011
-1.23998e-05
-0.000329887
-2.72677e-05
-0.000301843
-4.15281e-05
-0.000265804
-5.43559e-05
-0.000223087
-6.49545e-05
-0.00017536
-7.25979e-05
-0.000124617
-7.66952e-05
-7.31316e-05
-7.68373e-05
-2.33955e-05
-7.28344e-05
2.19135e-05
-6.48014e-05
6.0369e-05
-5.3446e-05
9.04104e-05
-3.99985e-05
0.000111166
-2.56219e-05
0.000122328
-1.13704e-05
0.00012442
1.50409e-06
0.000118819
1.19383e-05
0.000107388
1.94246e-05
9.21255e-05
2.39398e-05
7.49226e-05
2.58017e-05
5.73556e-05
2.55827e-05
4.05872e-05
2.39175e-05
2.54496e-05
2.12503e-05
1.27365e-05
1.75565e-05
3.58692e-06
1.21758e-05
4.38223e-06
1.7691e-06
-1.20997e-05
7.74688e-06
-2.38102e-05
1.53721e-05
-2.39857e-05
2.11671e-05
-1.86794e-05
2.339e-05
-1.07825e-05
2.1367e-05
-2.08312e-06
1.48874e-05
6.49872e-06
3.83012e-06
1.48226e-05
-1.20416e-05
2.32485e-05
-3.31261e-05
3.2255e-05
-5.98667e-05
4.21747e-05
-9.25613e-05
5.30018e-05
-0.000131187
6.43788e-05
-0.000175269
7.56437e-05
-0.000223803
8.59215e-05
-0.000275281
9.42357e-05
-0.000327788
9.96401e-05
-0.000379185
0.000101338
-0.000427291
9.87792e-05
-0.000470073
9.17089e-05
-0.000505775
8.01789e-05
-0.000532999
6.45216e-05
-0.000550735
4.52998e-05
-0.000558336
2.32319e-05
-0.000555439
-8.85675e-07
-0.000541848
-2.62668e-05
-0.000517785
-5.1612e-05
-0.000483723
-7.58761e-05
-0.000440472
-9.79011e-05
-0.000389194
-0.000116533
-0.000331425
-0.000130678
-0.000269054
-0.000139382
-0.000204286
-0.000141931
-0.000139521
-0.000137934
-7.72572e-05
-0.000127419
-2.01741e-05
-0.000110897
2.89895e-05
-8.95298e-05
6.82569e-05
-6.52338e-05
9.66691e-05
-4.01088e-05
0.000113942
-1.60758e-05
0.000120493
5.10133e-06
0.000117698
2.1956e-05
0.000107515
3.38769e-05
9.21435e-05
4.09383e-05
7.37729e-05
4.37284e-05
5.43477e-05
4.31287e-05
3.55018e-05
3.98927e-05
1.86869e-05
3.41236e-05
5.71646e-06
2.49796e-05
1.00752e-05
2.80346e-06
-1.506e-05
8.09957e-06
-2.94348e-05
1.27947e-05
-2.89886e-05
1.43927e-05
-2.05895e-05
1.13758e-05
-8.10227e-06
2.95603e-06
5.97914e-06
-1.13561e-05
2.04441e-05
-3.20081e-05
3.51103e-05
-5.9521e-05
5.04026e-05
-9.43684e-05
6.67563e-05
-0.000136757
8.42312e-05
-0.00018643
0.000102362
-0.00024255
0.000120205
-0.000303684
0.000136503
-0.000367906
0.000149889
-0.000432989
0.000159083
-0.000496628
0.000163061
-0.00055665
0.000161157
-0.000611155
0.000153097
-0.000658593
0.00013897
-0.000697752
0.000119171
-0.00072772
9.4329e-05
-0.000747821
6.52395e-05
-0.000757551
3.28032e-05
-0.000756509
-2.09286e-06
-0.00074428
-3.86591e-05
-0.000720827
-7.52296e-05
-0.000686312
-0.00011056
-0.000641194
-0.000143194
-0.000586288
-0.000171622
-0.000522819
-0.000194338
-0.000452458
-0.000209942
-0.000377318
-0.000217277
-0.000299889
-0.000215578
-0.000222904
-0.000204627
-0.00014916
-0.000184877
-8.14205e-05
-0.000157513
-2.24934e-05
-0.000124419
2.52358e-05
-8.81013e-05
6.05515e-05
-5.16537e-05
8.33154e-05
-1.79155e-05
9.42768e-05
1.0758e-05
9.4938e-05
3.29954e-05
8.73358e-05
4.83316e-05
7.37944e-05
5.70707e-05
5.6697e-05
6.00331e-05
3.82903e-05
5.81001e-05
2.07571e-05
5.14892e-05
6.53571e-06
3.90037e-05
1.65917e-05
2.20624e-06
-1.73818e-05
5.15338e-06
-3.26934e-05
5.26635e-06
-2.93992e-05
6.73444e-07
-1.63017e-05
-9.85525e-06
2.11497e-06
-2.7088e-05
2.29032e-05
-5.16409e-05
4.46948e-05
-8.41822e-05
6.73562e-05
-0.00012526
9.11951e-05
-0.000175055
0.000116279
-0.000233166
0.000142084
-0.000298514
0.000167468
-0.000369406
0.000190874
-0.000443709
0.000210602
-0.00051909
0.000225085
-0.000593256
0.000233086
-0.000664146
0.000233807
-0.000730012
0.000226903
-0.000789446
0.00021243
-0.000841319
0.000190763
-0.000884718
0.000162508
-0.000918879
0.000128445
-0.00094315
8.94784e-05
-0.000956983
4.66073e-05
-0.000959921
8.24559e-07
-0.000951442
-4.71587e-05
-0.000931292
-9.54021e-05
-0.000899318
-0.000142566
-0.000855553
-0.000187
-0.000800312
-0.000226921
-0.000734289
-0.000260434
-0.000658685
-0.000285639
-0.000575282
-0.000300787
-0.000486482
-0.000304501
-0.000395234
-0.000296011
-0.000304876
-0.000275379
-0.000218883
-0.000243658
-0.000140546
-0.000202917
-7.26962e-05
-0.000156127
-1.76615e-05
-0.000106882
2.3213e-05
-5.89953e-05
4.99592e-05
-1.6193e-05
6.38551e-05
1.89013e-05
6.69058e-05
4.50941e-05
6.1372e-05
6.24261e-05
4.98131e-05
7.14241e-05
3.48988e-05
7.28634e-05
1.93126e-05
6.68651e-05
6.17705e-06
5.2021e-05
2.27503e-05
5.44941e-07
-1.80589e-05
-5.82025e-07
-3.18549e-05
-6.79246e-06
-2.34789e-05
-1.93854e-05
-3.99841e-06
-3.92345e-05
2.16855e-05
-6.69666e-05
5.0371e-05
-0.00010329
8.07657e-05
-0.000148837
0.000112664
-0.000203849
0.00014598
-0.000267915
0.000180132
-0.000339888
0.00021386
-0.000417982
0.000245384
-0.000499997
0.000272729
-0.000583585
0.000294051
-0.000666491
0.000307876
-0.000746706
0.000313209
-0.000822525
0.000309562
-0.000892543
0.000296883
-0.000955603
0.000275481
-0.00101076
0.000245933
-0.00105723
0.000209024
-0.0010944
0.000165683
-0.00112179
0.000116948
-0.00113901
6.39294e-05
-0.0011458
7.71445e-06
-0.00114182
-5.10326e-05
-0.00112671
-0.000110415
-0.00110005
-0.000169144
-0.00106139
-0.000225595
-0.00101036
-0.000277899
-0.000946847
-0.000323921
-0.000871166
-0.000361314
-0.000784292
-0.000387678
-0.00068803
-0.000400798
-0.000585114
-0.00039898
-0.000479151
-0.00038141
-0.000374396
-0.000348491
-0.000275349
-0.000302054
-0.000186209
-0.000245367
-0.000110331
-0.000182874
-4.98186e-05
-0.000119639
-5.57601e-06
-6.05898e-05
2.29701e-05
-9.81145e-06
3.78471e-05
3.00512e-05
4.16799e-05
5.84369e-05
3.72515e-05
7.57033e-05
2.75202e-05
8.24364e-05
1.56518e-05
7.86247e-05
5.03919e-06
6.24802e-05
2.77755e-05
-1.99623e-06
-1.61625e-05
-8.84118e-06
-2.53167e-05
-2.29296e-05
-9.68736e-06
-4.48808e-05
1.76738e-05
-7.50943e-05
5.1644e-05
-0.000114127
8.91703e-05
-0.000162624
0.000129048
-0.000220917
0.000170761
-0.00028871
0.000213594
-0.000364938
0.000256201
-0.000447862
0.000296644
-0.000535301
0.000332705
-0.000624915
0.000362247
-0.000714426
0.000383495
-0.000801767
0.000395176
-0.00088513
0.000396563
-0.00096297
0.000387424
-0.001034
0.000367967
-0.00109719
0.000338766
-0.00115182
0.000300687
-0.00119745
0.000254807
-0.0012339
0.000202314
-0.00126117
0.000144427
-0.00127935
8.23346e-05
-0.00128854
1.71422e-05
-0.00128886
-5.04849e-05
-0.00127995
-0.000119092
-0.00126125
-0.000187635
-0.00123187
-0.000254788
-0.00119071
-0.000318889
-0.00113665
-0.000377834
-0.00106879
-0.000429063
-0.000986743
-0.000469633
-0.00089104
-0.000496442
-0.000783402
-0.000506584
-0.000666954
-0.00049785
-0.000546188
-0.000469272
-0.000426642
-0.000421634
-0.000314273
-0.000357785
-0.000214588
-0.000282621
-0.00013172
-0.000202583
-6.77542e-05
-0.000124652
-2.26677e-05
-5.50219e-05
5.29093e-06
1.94952e-06
1.9227e-05
4.43565e-05
2.25321e-05
7.22634e-05
1.86797e-05
8.61782e-05
1.11504e-05
8.59851e-05
3.66998e-06
6.98844e-05
3.14321e-05
-5.37626e-06
-1.09238e-05
-1.92699e-05
-1.17426e-05
-4.23794e-05
1.31171e-05
-7.42905e-05
4.93116e-05
-0.00011508
9.21934e-05
-0.000165262
0.000139139
-0.000225222
0.000188822
-0.000294831
0.000240209
-0.000373219
0.000291845
-0.0004588
0.000341667
-0.000549475
0.000387232
-0.00064291
0.000426079
-0.000736752
0.000456057
-0.000828771
0.000475511
-0.000916922
0.00048336
-0.000999392
0.000479099
-0.00107465
0.000462782
-0.00114152
0.000434981
-0.0011993
0.000396714
-0.00124774
0.000349333
-0.00128705
0.000294362
-0.00131781
0.000233329
-0.00134072
0.000167626
-0.00135652
9.844e-05
-0.00136581
2.67481e-05
-0.00136919
-4.68028e-05
-0.00136655
-0.000121432
-0.00135732
-0.000196584
-0.00134037
-0.000271476
-0.00131407
-0.000344955
-0.00127638
-0.000415312
-0.0012251
-0.000480156
-0.00115822
-0.000536362
-0.00107437
-0.000580165
-0.000973392
-0.000607464
-0.000856841
-0.000614335
-0.000728305
-0.000597771
-0.000593424
-0.0005565
-0.000459444
-0.000491772
-0.00033427
-0.000407818
-0.000225119
-0.000311772
-0.000137062
-0.000212767
-7.19727e-05
-0.000120193
-2.8574e-05
-4.15575e-05
-3.32579e-06
1.89883e-05
8.19178e-06
6.06256e-05
1.02896e-05
8.39486e-05
7.1029e-06
8.9101e-05
2.49374e-06
7.43728e-05
3.39151e-05
-9.33143e-06
-1.71746e-06
-3.13572e-05
9.92141e-06
-6.38663e-05
4.5307e-05
-0.000105539
9.07114e-05
-0.00015638
0.0001428
-0.000216716
0.00019928
-0.000286577
0.00025852
-0.00036534
0.000318842
-0.000451656
0.000378059
-0.000543574
0.000433516
-0.000638789
0.000482407
-0.000734851
0.000522134
-0.000829312
0.000550545
-0.000919815
0.000566075
-0.00100418
0.000567818
-0.00108052
0.000555572
-0.00114743
0.000529853
-0.0012041
0.000491848
-0.00125044
0.000443269
-0.001287
0.000386132
-0.00131486
0.000322486
-0.00133544
0.000254178
-0.00135021
0.000182681
-0.00136051
0.000109043
-0.00136742
3.39568e-05
-0.00137187
-4.2054e-05
-0.00137413
-0.000118889
-0.00137378
-0.000196654
-0.0013698
-0.000275193
-0.00136044
-0.000354067
-0.00134322
-0.000432293
-0.00131504
-0.000508115
-0.00127241
-0.000578784
-0.00121194
-0.000640449
-0.00113101
-0.000688246
-0.00102853
-0.000716689
-0.000905784
-0.00072042
-0.00076694
-0.000695282
-0.000619108
-0.000639568
-0.000471729
-0.000555185
-0.000335173
-0.000448337
-0.000218689
-0.000329277
-0.000128212
-0.000210718
-6.4936e-05
-0.000104907
-2.56826e-05
-2.03678e-05
-4.82406e-06
3.96544e-05
3.42509e-06
7.56111e-05
4.13071e-06
8.82484e-05
1.7975e-06
7.665e-05
3.5701e-05
-1.37273e-05
1.1852e-05
-4.4205e-05
4.0021e-05
-8.57066e-05
8.64843e-05
-0.00013639
0.000141124
-0.000196134
0.000202324
-0.000265031
0.000267998
-0.000342718
0.000336071
-0.000428144
0.000404167
-0.00051958
0.000469433
-0.000614812
0.000528718
-0.000711326
0.00057893
-0.000806473
0.000617324
-0.000897568
0.000641718
-0.000982025
0.000650644
-0.00105755
0.000643487
-0.00112239
0.000620581
-0.00117555
0.000583215
-0.00121697
0.000533485
-0.00124747
0.000473999
-0.00126859
0.000407488
-0.0012823
0.000336438
-0.00129071
0.000262828
-0.0012958
0.000188006
-0.00129922
0.000112703
-0.00130223
3.72087e-05
-0.00130583
-3.82121e-05
-0.00131052
-0.00011397
-0.00131619
-0.000190757
-0.00132225
-0.000268903
-0.00132742
-0.000348664
-0.00132955
-0.000429928
-0.0013255
-0.000511945
-0.0013111
-0.000592964
-0.00128148
-0.000669866
-0.00123163
-0.000737924
-0.00115732
-0.000790847
-0.00105631
-0.000821299
-0.000929532
-0.000821967
-0.000781876
-0.000787159
-0.000622353
-0.00071467
-0.000463168
-0.000607506
-0.000317647
-0.000474804
-0.000197192
-0.0003312
-0.00010814
-0.00019401
-5.01231e-05
-7.84611e-05
-1.73446e-05
6.78443e-06
-2.11921e-06
6.02685e-05
2.3693e-06
8.37034e-05
1.59089e-06
7.73131e-05
3.72816e-05
-1.81675e-05
2.9858e-05
-5.6673e-05
7.81474e-05
-0.000106282
0.000135772
-0.000164755
0.000199336
-0.000231828
0.00026919
-0.000307335
0.000343349
-0.000390559
0.000419181
-0.000480077
0.000493616
-0.000573856
0.000563182
-0.000669416
0.000624287
-0.000763977
0.000673537
-0.000854588
0.000708017
-0.000938289
0.000725533
-0.00101235
0.000724853
-0.00107463
0.000705929
-0.00112386
0.000669995
-0.00115991
0.000619467
-0.00118381
0.000557582
-0.0011975
0.000487878
-0.00120347
0.000413634
-0.00120432
0.000337457
-0.00120243
0.000261087
-0.00119973
0.000185433
-0.00119765
0.000110741
-0.00119718
3.68532e-05
-0.00119901
-3.62685e-05
-0.00120359
-0.000109282
-0.00121113
-0.00018311
-0.00122166
-0.000258253
-0.00123481
-0.000335377
-0.00124952
-0.000415076
-0.00126364
-0.000497664
-0.00127365
-0.000582787
-0.00127448
-0.000668862
-0.00125977
-0.000752468
-0.0012226
-0.000827864
-0.00115681
-0.000886947
-0.00105873
-0.000919934
-0.000928861
-0.000916934
-0.000773137
-0.00087033
-0.00060304
-0.000777564
-0.000434214
-0.000643613
-0.000283336
-0.000482081
-0.000163679
-0.00031369
-8.09059e-05
-0.000161283
-3.18071e-05
-4.2397e-05
-7.50232e-06
3.58858e-05
1.20293e-06
7.48516e-05
1.73868e-06
7.67241e-05
3.90075e-05
-2.23598e-05
5.20633e-05
-6.78328e-05
0.000123237
-0.000124234
0.000191867
-0.000188937
0.000263799
-0.000261512
0.000341584
-0.000341539
0.000423246
-0.000427976
0.000505537
-0.000519087
0.00058469
-0.000612548
0.000656648
-0.000705582
0.000717364
-0.000795089
0.000763123
-0.000877825
0.000790863
-0.000950677
0.000798521
-0.00101107
0.000785399
-0.00105739
0.000752421
-0.00108936
0.000702139
-0.00110811
0.000638379
-0.00111595
0.000565572
-0.00111589
0.000487952
-0.00111106
0.0004089
-0.00110413
0.000330605
-0.00109711
0.00025411
-0.00109126
0.000179597
-0.00108727
0.000106749
-0.0010855
3.5061e-05
-0.00108606
-3.57255e-05
-0.00108914
-0.000106223
-0.00109511
-0.00017715
-0.00110448
-0.000248867
-0.00111779
-0.000322029
-0.00113532
-0.000397487
-0.00115665
-0.000476246
-0.00118011
-0.000559217
-0.00120216
-0.000646695
-0.00121696
-0.000737523
-0.0012166
-0.000828095
-0.00119192
-0.000911486
-0.00113447
-0.000977264
-0.00103888
-0.00101243
-0.000905353
-0.00100378
-0.000741381
-0.000941482
-0.000561758
-0.000823205
-0.000386325
-0.000657503
-0.000235229
-0.000464795
-0.000122616
-0.000273929
-5.15883e-05
-0.000113482
-1.4718e-05
-1.08154e-06
-2.164e-07
6.0302e-05
1.91982e-06
7.44584e-05
4.0916e-05
-2.5917e-05
7.78051e-05
-7.69254e-05
0.000173927
-0.000138532
0.000253208
-0.000207722
0.000332783
-0.00028388
0.000417593
-0.000366336
0.000505605
-0.000453761
0.000592911
-0.00054413
0.000675052
-0.000634827
0.000747378
-0.000722767
0.000805372
-0.000804562
0.000845018
-0.00087681
0.000863234
-0.000936524
0.000858378
-0.000981682
0.000830706
-0.0010117
0.000782585
-0.00102765
0.000718235
-0.00103214
0.000642985
-0.00102867
0.0005622
-0.00102091
0.000480258
-0.00101193
0.000399954
-0.00100381
0.000322476
-0.000997556
0.000247828
-0.000993423
0.000175405
-0.000991213
0.000104459
-0.000990607
3.43645e-05
-0.000991238
-3.51903e-05
-0.000992994
-0.000104556
-0.00099621
-0.000174012
-0.00100151
-0.000243632
-0.00100984
-0.000313746
-0.00102236
-0.000384981
-0.00104021
-0.000458392
-0.00106393
-0.00053547
-0.00109267
-0.000617906
-0.00112319
-0.000706926
-0.0011491
-0.00080209
-0.00116079
-0.000899704
-0.00114658
-0.000991375
-0.00109532
-0.00106359
-0.000999899
-0.00109913
-0.000860645
-0.00108068
-0.000687548
-0.000996261
-0.000499864
-0.000845162
-0.000322346
-0.000642305
-0.000178068
-0.000418214
-7.98697e-05
-0.000211707
-2.56818e-05
-5.53218e-05
-2.96951e-06
3.74307e-05
1.87177e-06
6.95704e-05
4.27738e-05
-2.8575e-05
0.000106267
-8.34428e-05
0.000228494
-0.000148515
0.000318058
-0.000220391
0.000404496
-0.000298233
0.000495327
-0.000381132
0.000588443
-0.000467497
0.000679259
-0.000555037
0.000762615
-0.00064086
0.000833258
-0.000721618
0.000886217
-0.000793764
0.000917274
-0.000853982
0.000923579
-0.000899784
0.000904311
-0.000930117
0.000861169
-0.000945784
0.000798369
-0.000949416
0.000721964
-0.000944908
0.000638548
-0.000936466
0.000553797
-0.000927624
0.000471423
-0.000920632
0.000392937
-0.000916377
0.000318168
-0.000914726
0.0002461
-0.000915007
0.00017559
-0.000916426
0.000105767
-0.000918317
3.61328e-05
-0.000920129
-3.35042e-05
-0.000921615
-0.00010319
-0.000922944
-0.000172797
-0.000924541
-0.000242139
-0.000927214
-0.000311165
-0.000932214
-0.000380057
-0.000941241
-0.000449424
-0.000956235
-0.00052051
-0.000978814
-0.000595337
-0.00100919
-0.000676528
-0.00104473
-0.000766514
-0.00107855
-0.000865823
-0.0010992
-0.000970654
-0.00109213
-0.00107059
-0.00104329
-0.00114789
-0.000944049
-0.00117985
-0.000795864
-0.0011444
-0.000612741
-0.00102825
-0.000419827
-0.0008352
-0.000247062
-0.000590976
-0.000118559
-0.000340233
-4.2077e-05
-0.000131865
-7.72484e-06
3.06884e-06
1.33538e-06
6.03639e-05
4.40982e-05
-3.01253e-05
0.00013625
-8.7059e-05
0.000285245
-0.000153856
0.000384703
-0.000226661
0.000477195
-0.000304397
0.000572999
-0.000385925
0.00066995
-0.000469426
0.000762776
-0.000552377
0.000845613
-0.000631661
0.000912618
-0.000703782
0.000958435
-0.000765237
0.000978841
-0.000813101
0.000971559
-0.000845728
0.000937053
-0.000863362
0.000878903
-0.00086833
0.000803419
-0.000864629
0.000718319
-0.000856904
0.00063085
-0.000849213
0.000546105
-0.000844138
0.00046632
-0.000842579
0.000391329
-0.000844165
0.000319687
-0.000847887
0.000249741
-0.000852631
0.000180244
-0.000857472
0.000110511
-0.000861766
4.03235e-05
-0.000865067
-3.03055e-05
-0.000867154
-0.000101202
-0.000868058
-0.000171988
-0.00086795
-0.000242337
-0.00086725
-0.000311953
-0.000866748
-0.00038064
-0.000867783
-0.000448461
-0.000872375
-0.00051598
-0.00088315
-0.000584606
-0.000902783
-0.000656921
-0.00093267
-0.00073663
-0.000970862
-0.000827614
-0.00100995
-0.000931532
-0.00103632
-0.00104417
-0.00103214
-0.00115202
-0.00098051
-0.00123144
-0.000872168
-0.0012527
-0.000711464
-0.00118892
-0.000518607
-0.00102804
-0.00032601
-0.000783559
-0.000167804
-0.000498425
-6.4885e-05
-0.000234779
-1.50477e-05
-4.69346e-05
2.56824e-07
4.50451e-05
4.4344e-05
-3.04334e-05
0.000166644
-8.76971e-05
0.000342359
-0.000154525
0.00045144
-0.000226612
0.00054923
-0.00030261
0.000648982
-0.000381177
0.000748535
-0.000460302
0.000841947
-0.000537286
0.000922668
-0.00060889
0.000984311
-0.000671627
0.00102127
-0.000722273
0.00102959
-0.000758571
0.00100796
-0.000779979
0.000958551
-0.000788137
0.000887134
-0.000786734
0.000802063
-0.000780596
0.000712203
-0.000774297
0.000624549
-0.000770931
0.000542713
-0.000771636
0.000466983
-0.000775974
0.000395611
-0.000782703
0.000326354
-0.000790479
0.000257452
-0.000798226
0.000187924
-0.000805227
0.000117445
-0.000811066
4.60936e-05
-0.000815522
-2.59198e-05
-0.000818482
-9.83094e-05
-0.000819929
-0.000170606
-0.000819882
-0.000242451
-0.000818437
-0.000313465
-0.000815866
-0.00038328
-0.000812797
-0.0004516
-0.000810485
-0.000518359
-0.000811104
-0.000584051
-0.000817836
-0.000650241
-0.000834361
-0.000720143
-0.000863241
-0.000798753
-0.000903108
-0.000891666
-0.000945626
-0.00100164
-0.000974396
-0.00112322
-0.000967955
-0.00123784
-0.000907026
-0.00131359
-0.000783574
-0.00131234
-0.000607678
-0.0012039
-0.000408376
-0.000982836
-0.000225796
-0.000680997
-9.45652e-05
-0.000366049
-2.50779e-05
-0.000116359
-1.46351e-06
2.12926e-05
4.28724e-05
-2.95054e-05
0.000196081
-8.54025e-05
0.000398243
-0.000150705
0.000516732
-0.000220587
0.000619122
-0.000293419
0.000721847
-0.000367686
0.000822856
-0.000441243
0.000915577
-0.0005113
0.000992813
-0.00057462
0.00104773
-0.000627907
0.00107466
-0.000668427
0.00107021
-0.000694789
0.00103441
-0.000707639
0.000971472
-0.00070988
0.000889423
-0.000706099
0.000798306
-0.00070122
0.000707325
-0.000698979
0.000622288
-0.000701041
0.000544741
-0.000707151
0.000473049
-0.000715972
0.000404384
-0.000725965
0.000336297
-0.000735905
0.000267341
-0.00074502
0.00019699
-0.000752916
0.000125293
-0.00075943
5.25584e-05
-0.000764529
-2.08686e-05
-0.000768218
-9.46668e-05
-0.000770488
-0.000168382
-0.000771322
-0.000241662
-0.000770679
-0.000314156
-0.000768521
-0.000385488
-0.000764919
-0.000455255
-0.000760273
-0.000523061
-0.000755681
-0.000588699
-0.000753399
-0.000652577
-0.000757118
-0.000716471
-0.00077149
-0.000784418
-0.000800118
-0.000863062
-0.000841785
-0.000959983
-0.000886367
-0.00107863
-0.00091373
-0.00121047
-0.000898575
-0.00132873
-0.000820736
-0.00139016
-0.000676603
-0.00134801
-0.000485866
-0.00117355
-0.000288667
-0.000878172
-0.000130547
-0.000524116
-3.83241e-05
-0.000208713
-3.80488e-06
-1.31964e-05
3.90647e-05
-2.73531e-05
0.000223481
-8.03894e-05
0.000451304
-0.000142753
0.000579147
-0.000209122
0.000685556
-0.000277578
0.000790379
-0.00034647
0.000891836
-0.000413592
0.000982796
-0.000476166
0.00105549
-0.000531094
0.00110276
-0.000575432
0.0011191
-0.00060709
0.00110196
-0.000625611
0.00105301
-0.000632727
0.000978643
-0.000632247
0.000888976
-0.000629046
0.000795116
-0.000627457
0.000705728
-0.000629931
0.000624742
-0.000636738
0.000551518
-0.000646666
0.000482942
-0.000658052
0.000415733
-0.000669498
0.000347705
-0.000680127
0.000277933
-0.000689522
0.000206349
-0.000697557
0.000133291
-0.000704243
5.92069e-05
-0.000709648
-1.55041e-05
-0.000713833
-9.05214e-05
-0.000716811
-0.000165441
-0.000718602
-0.000239908
-0.000719168
-0.000313626
-0.000718398
-0.000386296
-0.00071612
-0.000457573
-0.000712202
-0.000527022
-0.000706814
-0.000594133
-0.000700907
-0.000658532
-0.000696857
-0.00072057
-0.000698927
-0.000782393
-0.000712754
-0.000849272
-0.000742712
-0.000930053
-0.000786862
-0.0010345
-0.000831838
-0.00116549
-0.000852621
-0.00130793
-0.000820633
-0.00142213
-0.000717902
-0.00145072
-0.000550133
-0.0013413
-0.000350907
-0.00107738
-0.000171446
-0.000703601
-5.47635e-05
-0.00032529
-6.86723e-06
-6.11535e-05
3.21956e-05
-2.41384e-05
0.00024764
-7.29212e-05
0.000500232
-0.000131116
0.000637464
-0.000192867
0.000747425
-0.000255962
0.000853592
-0.000318666
0.000954657
-0.000378793
0.00104304
-0.000433686
0.00111049
-0.000480515
0.00114969
-0.000516808
0.00115549
-0.000541179
0.00112641
-0.000554043
0.00106594
-0.000557955
0.000982602
-0.000557149
0.000888197
-0.000556201
0.000794177
-0.000558418
0.000707939
-0.000564934
0.000631245
-0.000575002
0.000561566
-0.000586998
0.000494915
-0.000599367
0.000428076
-0.000611071
0.00035938
-0.000621604
0.000288435
-0.000630825
0.000215534
-0.000638764
0.00014119
-0.000645504
6.58996e-05
-0.000651125
-9.93222e-06
-0.000655674
-8.60217e-05
-0.000659182
-0.000161979
-0.000661711
-0.000237423
-0.000663297
-0.000312082
-0.000663891
-0.00038574
-0.000663325
-0.000458178
-0.000661295
-0.00052909
-0.000657484
-0.000597983
-0.000651869
-0.000664188
-0.000645335
-0.000727146
-0.00064052
-0.00078725
-0.000642445
-0.000847386
-0.000657766
-0.000914766
-0.000691067
-0.00100122
-0.00073815
-0.00111842
-0.000780377
-0.00126571
-0.000787045
-0.00141545
-0.000728576
-0.00150918
-0.00059463
-0.00147523
-0.000406487
-0.0012655
-0.000214302
-0.000895717
-7.43312e-05
-0.000465323
-1.06806e-05
-0.000124741
2.15244e-05
-1.99809e-05
0.000267746
-6.33547e-05
0.000543784
-0.000116314
0.000690596
-0.000172532
0.000803805
-0.000229497
0.00091071
-0.00028544
0.00101074
-0.000338278
0.00109601
-0.000385579
0.00115792
-0.000424882
0.00118911
-0.000454249
0.00118495
-0.000472969
0.00114521
-0.00048215
0.00107518
-0.000484814
0.000985311
-0.000485137
0.00088855
-0.00048698
0.000796035
-0.000492505
0.00071347
-0.000501804
0.000640544
-0.000513601
0.000573357
-0.000526293
0.000507597
-0.000538656
0.000440424
-0.000550036
0.000370736
-0.000560217
0.000298585
-0.000569217
0.000224495
-0.000577122
0.000149046
-0.000584003
7.27264e-05
-0.000589908
-4.09287e-06
-0.000594813
-8.11824e-05
-0.000598756
-0.000158098
-0.000601828
-0.000234407
-0.00060414
-0.000309823
-0.000605752
-0.000384174
-0.000606607
-0.000457365
-0.000606458
-0.000529278
-0.000604866
-0.000599611
-0.000601344
-0.000667745
-0.000595749
-0.000732776
-0.000589054
-0.00079398
-0.000584429
-0.000852047
-0.000587934
-0.000911294
-0.000607161
-0.000982027
-0.000645761
-0.00107985
-0.000694836
-0.00121665
-0.000728226
-0.00138207
-0.000710328
-0.00152706
-0.000615854
-0.00156968
-0.00045006
-0.00143126
-0.000255612
-0.00109018
-9.6061e-05
-0.000624765
-1.52458e-05
-0.000205524
6.28321e-06
-1.51199e-05
0.000282968
-5.20498e-05
0.000580978
-9.88854e-05
0.000737656
-0.000148842
0.000853961
-0.000199109
0.000961158
-0.000247926
0.00105972
-0.000293394
0.00114162
-0.000333393
0.00119804
-0.000365892
0.00122172
-0.000389497
0.00120865
-0.000404065
0.00115986
-0.000411146
0.00108233
-0.000413856
0.000988072
-0.000415931
0.000890664
-0.000420319
0.000800452
-0.00042818
0.000721353
-0.000438961
0.000651341
-0.00045127
0.000585677
-0.000463774
0.000520104
-0.000475628
0.000452272
-0.000486487
0.000381578
-0.000496316
0.000308384
-0.000505192
0.000233328
-0.000513186
0.000156987
-0.000520332
7.98015e-05
-0.000526619
2.11364e-06
-0.000531942
-7.59389e-05
-0.000536326
-0.000153789
-0.00053987
-0.000230935
-0.000542739
-0.000307017
-0.000545094
-0.000381876
-0.000547008
-0.000455502
-0.000548366
-0.000527964
-0.000548806
-0.00059921
-0.000547738
-0.000668849
-0.000544538
-0.000736009
-0.000539064
-0.000799485
-0.000532635
-0.000858506
-0.000529339
-0.00091462
-0.000536587
-0.000974805
-0.000562405
-0.00105405
-0.000607298
-0.00117177
-0.000654307
-0.00133506
-0.000668524
-0.00151284
-0.000613729
-0.00162447
-0.000478141
-0.00156684
-0.000291591
-0.00127666
-0.000118754
-0.000797601
-2.04785e-05
-0.000303731
-1.41723e-05
-9.7382e-06
0.000292885
-3.94086e-05
0.000610936
-7.9376e-05
0.000777879
-0.000122508
0.000897321
-0.000165683
0.00100453
-0.000207179
0.0011014
-0.00024535
0.00117995
-0.000278444
0.00123127
-0.0003049
0.00124829
-0.000323816
0.00122767
-0.000335469
0.0011716
-0.000341582
0.00108852
-0.000345034
0.000991587
-0.000348884
0.000894566
-0.000355169
0.000806782
-0.000364315
0.000730538
-0.000375497
0.000662556
-0.000387482
0.000597688
-0.000399291
0.000531929
-0.000410412
0.000463397
-0.00042071
0.000391865
-0.000430231
0.000317878
-0.000439051
0.000242106
-0.000447203
0.000165079
-0.000454667
8.71952e-05
-0.000461396
8.75491e-06
-0.000467222
-7.02044e-05
-0.000472117
-0.00014898
-0.000476171
-0.00022696
-0.000479581
-0.000303679
-0.000482582
-0.000378938
-0.000485358
-0.000452782
-0.00048793
-0.00052544
-0.000490062
-0.000597119
-0.00049123
-0.000667715
-0.000490694
-0.000736574
-0.000487776
-0.000802429
-0.00048253
-0.000863775
-0.000476993
-0.000920178
-0.000476679
-0.000975141
-0.000490461
-0.00104029
-0.000525296
-0.00113695
-0.000574765
-0.0012856
-0.000610477
-0.00147713
-0.000591084
-0.00164385
-0.000489435
-0.00166846
-0.00031943
-0.00144666
-0.000140563
-0.000976378
-2.62908e-05
-0.000417912
-4.04521e-05
-4.09408e-06
0.000297141
-2.58172e-05
0.000632994
-5.83154e-05
0.000810662
-9.42054e-05
0.00093346
-0.000130039
0.00104059
-0.000164151
0.0011357
-0.000195187
0.00121115
-0.000221811
0.00125804
-0.000242923
0.00126953
-0.000258048
0.0012429
-0.00026771
0.00118136
-0.000273561
0.00109445
-0.000278003
0.000996107
-0.000283308
0.000899941
-0.000290728
0.000814266
-0.000300243
0.000740111
-0.000311031
0.000673394
-0.000322154
0.000608854
-0.000332983
0.000542788
-0.000343256
0.000473686
-0.000352959
0.000401566
-0.000362158
0.000327059
-0.0003709
0.000250814
-0.000379176
0.000173307
-0.00038694
9.48864e-05
-0.000394121
1.58474e-05
-0.000400513
-6.39002e-05
-0.000406015
-0.000143564
-0.000410689
-0.000222365
-0.000414736
-0.000299704
-0.000418437
-0.0003753
-0.000422061
-0.000449213
-0.000425739
-0.000521811
-0.000429355
-0.000593544
-0.000432491
-0.000664613
-0.000434448
-0.000734644
-0.000434389
-0.00080251
-0.000431723
-0.000866459
-0.000427002
-0.000924913
-0.000423506
-0.00097865
-0.000428687
-0.00103512
-0.000452272
-0.00111337
-0.000496751
-0.00124113
-0.000543651
-0.00143022
-0.000552591
-0.0016349
-0.000484855
-0.00173618
-0.000337387
-0.00159407
-0.00015982
-0.0011539
-3.24799e-05
-0.000545188
-7.28983e-05
1.58203e-06
0.000295762
-1.16744e-05
0.0006466
-3.62167e-05
0.000835505
-6.45664e-05
0.000962074
-9.29265e-05
0.00106918
-0.000119679
0.00116265
-0.000143787
0.00123543
-0.000164343
0.00127875
-0.000180692
0.00128601
-0.0001927
0.00125503
-0.000200986
0.00118975
-0.000206937
0.0011005
-0.000212327
0.00100159
-0.000218637
0.000906339
-0.000226497
0.000822209
-0.000235675
0.000749366
-0.00024552
0.000683309
-0.000255438
0.000618831
-0.000265098
0.000552495
-0.000274419
0.000483037
-0.000283439
0.000410599
-0.000292216
0.000335831
-0.000300768
0.000259344
-0.000309063
0.000181561
-0.000317038
0.000102808
-0.000324627
2.33637e-05
-0.000331622
-5.69894e-05
-0.000337821
-0.000137444
-0.000343252
-0.000217006
-0.000348095
-0.000294925
-0.000352654
-0.000370799
-0.000357248
-0.00044467
-0.000362084
-0.000517019
-0.000367142
-0.000588523
-0.000372102
-0.000659681
-0.000376349
-0.000730418
-0.000379057
-0.000799817
-0.000379405
-0.000866121
-0.000377115
-0.000927208
-0.000373681
-0.000982087
-0.000374292
-0.00103451