/*--------------------------------*- C++ -*----------------------------------*\
  =========                 |
  \\      /  F ield         | OpenFOAM: The Open Source CFD Toolbox
   \\    /   O peration     | Website:  https://openfoam.org
    \\  /    A nd           | Version:  7
     \\/     M anipulation  |
\*---------------------------------------------------------------------------*/
FoamFile
{
    version     2.0;
    format      ascii;
    class       volScalarField;
    location    "2000";
    object      p;
}
// * * * * * * * * * * * * * * * * * * * * * * * * * * * * * * * * * * * * * //

dimensions      [0 2 -2 0 0 0 0];

internalField   nonuniform List<scalar> 
2500
(
7.60492e-08
7.08791e-05
-9.06015e-06
-0.000307865
-0.000782248
-0.00136978
-0.00203026
-0.00275918
-0.00358221
-0.00454003
-0.00567269
-0.00701007
-0.0085691
-0.0103495
-0.0123278
-0.01445
-0.0166238
-0.0187178
-0.0205669
-0.0219893
-0.0228101
-0.02289
-0.0221538
-0.0206179
-0.0184084
-0.0157514
-0.0129685
-0.0104771
-0.00873895
-0.00819169
-0.00916801
-0.0118044
-0.0159882
-0.0214237
-0.0276513
-0.0341095
-0.0402695
-0.0457307
-0.0502623
-0.0537893
-0.056362
-0.0581152
-0.0592237
-0.0598633
-0.060186
-0.060308
-0.060307
-0.0602256
-0.0600863
-0.0599471
-6.92392e-05
3.55728e-06
-8.02491e-05
-0.000376697
-0.000829076
-0.00137323
-0.00197403
-0.00263292
-0.00337847
-0.00425101
-0.00528935
-0.00652344
-0.00797397
-0.00964871
-0.011536
-0.0135991
-0.015767
-0.0179284
-0.0199304
-0.0215893
-0.0227128
-0.0231311
-0.0227304
-0.0214866
-0.0194947
-0.0169718
-0.0142552
-0.0117801
-0.0100272
-0.00945338
-0.0104069
-0.0130466
-0.0172882
-0.0227818
-0.0290253
-0.0354705
-0.0415631
-0.0468624
-0.0511295
-0.0543376
-0.0566046
-0.0581122
-0.0590539
-0.0596023
-0.0598938
-0.0600254
-0.0600592
-0.0600246
-0.0599231
-0.0597914
-1.92864e-05
4.94074e-05
-5.75028e-05
-0.000379967
-0.000832372
-0.00133896
-0.00186954
-0.00243692
-0.00308216
-0.00385279
-0.00479292
-0.00594292
-0.00734081
-0.00902103
-0.0110035
-0.0132773
-0.0157819
-0.0183957
-0.0209365
-0.0231777
-0.0248803
-0.0258303
-0.0258763
-0.0249673
-0.0231956
-0.0207888
-0.0180837
-0.0155141
-0.0135725
-0.0127393
-0.013396
-0.0157405
-0.0197276
-0.0250553
-0.0312146
-0.0375841
-0.0435863
-0.0487789
-0.0528817
-0.0558294
-0.0577523
-0.0588962
-0.0595146
-0.0598123
-0.0599337
-0.0599685
-0.0599632
-0.0599277
-0.0598318
-0.0596875
0.0002279
0.000265969
0.000101533
-0.000279766
-0.000755565
-0.00123689
-0.00170279
-0.00218537
-0.00274566
-0.00345472
-0.00438592
-0.00561874
-0.00723798
-0.00932064
-0.0119096
-0.0149848
-0.0184431
-0.0220964
-0.0256887
-0.0289295
-0.0315344
-0.0332641
-0.0339536
-0.0335395
-0.0320938
-0.0298191
-0.0270278
-0.024141
-0.0216537
-0.0200724
-0.0198344
-0.021219
-0.024275
-0.028789
-0.0343105
-0.0402362
-0.0459438
-0.0509144
-0.0548531
-0.0576701
-0.0594168
-0.0603051
-0.0606163
-0.0606104
-0.0604718
-0.0603102
-0.0601759
-0.06007
-0.05994
-0.0597751
0.000707165
0.000677066
0.000417893
-4.42789e-05
-0.000555489
-0.00102939
-0.00146046
-0.00190868
-0.00247471
-0.00328051
-0.00446308
-0.00617022
-0.00854121
-0.0116717
-0.0155758
-0.0201631
-0.0252372
-0.0305171
-0.0356726
-0.0403626
-0.0442725
-0.0471451
-0.0488021
-0.049159
-0.0482454
-0.0462069
-0.0433087
-0.0399362
-0.0365614
-0.0336994
-0.0318422
-0.0313779
-0.032508
-0.0351889
-0.03912
-0.043796
-0.0486171
-0.0530223
-0.056612
-0.0591992
-0.0608177
-0.0616239
-0.0618091
-0.0616237
-0.0612867
-0.0609414
-0.0606615
-0.0604599
-0.0602835
-0.0601066
0.00146229
0.00132828
0.000948913
0.000397295
-0.000168867
-0.000675386
-0.00114692
-0.00169627
-0.00249268
-0.00374227
-0.00567068
-0.00849195
-0.0123618
-0.0173314
-0.0233208
-0.0301222
-0.0374261
-0.0448613
-0.0520344
-0.0585652
-0.0641166
-0.0684179
-0.0712814
-0.072608
-0.0723959
-0.0707296
-0.0678071
-0.0639491
-0.0595633
-0.0551256
-0.0511386
-0.0480734
-0.0462956
-0.0459912
-0.0471138
-0.0493799
-0.0523267
-0.0554246
-0.0582067
-0.0603634
-0.0617744
-0.0624888
-0.0626703
-0.062482
-0.0620954
-0.0616696
-0.0613038
-0.0610353
-0.06083
-0.0606585
0.00253174
0.00226895
0.00176017
0.00110865
0.000451717
-0.000167506
-0.000837122
-0.00175276
-0.00318385
-0.00544048
-0.0088246
-0.0135655
-0.0197602
-0.027342
-0.0360863
-0.0456448
-0.0555932
-0.0654785
-0.0748584
-0.0833327
-0.0905667
-0.0963043
-0.100373
-0.102681
-0.103224
-0.102054
-0.0992956
-0.0951833
-0.09002
-0.0841792
-0.0780926
-0.0722262
-0.0670379
-0.0629169
-0.060115
-0.0586892
-0.0584808
-0.059151
-0.0602727
-0.0614441
-0.0623773
-0.062933
-0.0631103
-0.0629971
-0.0626973
-0.0623222
-0.0619716
-0.0617028
-0.061507
-0.0613618
0.00392192
0.00352299
0.00288397
0.00211026
0.00129503
0.000410546
-0.000728433
-0.00243104
-0.00508233
-0.00907636
-0.0147288
-0.0221958
-0.0314308
-0.0421894
-0.0540725
-0.0665867
-0.079205
-0.0914175
-0.102769
-0.112881
-0.121469
-0.128331
-0.133342
-0.136442
-0.137649
-0.137022
-0.134632
-0.130627
-0.12519
-0.118551
-0.110999
-0.102884
-0.0946175
-0.0866575
-0.0794639
-0.073437
-0.0688409
-0.0657393
-0.0639749
-0.0632154
-0.0630568
-0.0631382
-0.063215
-0.0631807
-0.0630313
-0.0628082
-0.0625744
-0.0623835
-0.0622433
-0.0621426
0.00557812
0.00504997
0.0042757
0.00333732
0.00223926
0.00084334
-0.00116258
-0.00421446
-0.00878966
-0.0152966
-0.0239651
-0.0347807
-0.0474824
-0.0616123
-0.0765931
-0.0918078
-0.106668
-0.120663
-0.133382
-0.144527
-0.153903
-0.161397
-0.166952
-0.170548
-0.17223
-0.172096
-0.170189
-0.166588
-0.16138
-0.154664
-0.146567
-0.137261
-0.126992
-0.116107
-0.105071
-0.0944547
-0.0848775
-0.0768985
-0.0708794
-0.0668707
-0.0645943
-0.0635522
-0.0632109
-0.0631558
-0.0631564
-0.0631368
-0.0630921
-0.0630452
-0.0630002
-0.0629551
0.00734994
0.00670675
0.00578611
0.00460111
0.00302305
0.00077308
-0.00260084
-0.00763959
-0.0148428
-0.0245279
-0.0367311
-0.0511868
-0.0673795
-0.0846382
-0.102242
-0.119511
-0.135871
-0.150882
-0.164244
-0.175773
-0.185385
-0.193058
-0.198799
-0.202625
-0.2046
-0.204846
-0.203403
-0.200312
-0.195605
-0.189301
-0.181411
-0.171949
-0.160964
-0.148586
-0.135091
-0.120956
-0.10689
-0.0937866
-0.0825669
-0.0739382
-0.0681506
-0.0649033
-0.0634946
-0.0631332
-0.0632085
-0.06339
-0.0635701
-0.063708
-0.0637831
-0.0637977
0.00897943
0.00824019
0.00713769
0.00557312
0.00324942
-0.000266399
-0.00554972
-0.0131829
-0.0235838
-0.0368655
-0.0527826
-0.0707748
-0.0900769
-0.109853
-0.129317
-0.147818
-0.164881
-0.180202
-0.193618
-0.205072
-0.21457
-0.222158
-0.227885
-0.231789
-0.233934
-0.234447
-0.233363
-0.230711
-0.226509
-0.22075
-0.213396
-0.204378
-0.193611
-0.181028
-0.166646
-0.150663
-0.133573
-0.116243
-0.0998851
-0.0858349
-0.0751639
-0.0682659
-0.0646965
-0.063428
-0.0633556
-0.0636988
-0.0640975
-0.0644332
-0.0646382
-0.064713
0.0101131
0.00928273
0.00793125
0.00580982
0.00243382
-0.0027731
-0.0104589
-0.0211528
-0.0350781
-0.0520503
-0.0714947
-0.0925627
-0.114296
-0.135786
-0.156285
-0.175264
-0.192409
-0.207573
-0.220727
-0.231908
-0.241181
-0.248621
-0.254291
-0.258231
-0.260494
-0.26119
-0.260345
-0.25799
-0.254146
-0.248813
-0.241955
-0.233496
-0.223309
-0.21123
-0.197089
-0.180796
-0.162474
-0.142639
-0.122341
-0.103159
-0.086889
-0.0749464
-0.0677479
-0.0645297
-0.0638135
-0.0641799
-0.0647755
-0.0653034
-0.0656405
-0.0657786
0.0103222
0.00938647
0.00769488
0.00481771
8.71824e-05
-0.00717953
-0.0176256
-0.0316221
-0.0491032
-0.0695329
-0.0920106
-0.115458
-0.138822
-0.161231
-0.182074
-0.201002
-0.217875
-0.23269
-0.245511
-0.256426
-0.265521
-0.272868
-0.278525
-0.282522
-0.284891
-0.285724
-0.285032
-0.282849
-0.2792
-0.274099
-0.267536
-0.259465
-0.249787
-0.238337
-0.224891
-0.209193
-0.191052
-0.170521
-0.148152
-0.125229
-0.103769
-0.0860637
-0.0737905
-0.0671744
-0.0648974
-0.0649423
-0.065687
-0.0663993
-0.0668767
-0.06709
0.00916193
0.00809545
0.00596199
0.00214175
-0.00418972
-0.0137646
-0.0271329
-0.0444162
-0.0651996
-0.0885915
-0.113418
-0.138468
-0.162707
-0.185397
-0.206122
-0.224723
-0.241211
-0.255679
-0.268238
-0.278987
-0.288004
-0.295345
-0.301049
-0.305132
-0.30761
-0.308557
-0.307974
-0.30589
-0.302331
-0.297319
-0.290864
-0.282955
-0.273545
-0.262527
-0.249716
-0.234841
-0.217568
-0.197609
-0.174959
-0.150248
-0.12508
-0.102011
-0.0838386
-0.0723137
-0.0671264
-0.0661518
-0.0668832
-0.0677878
-0.06843
-0.0687438
0.00625561
0.00502599
0.00235837
-0.00254676
-0.0106274
-0.0225985
-0.0388361
-0.0591498
-0.0827603
-0.108461
-0.134894
-0.160825
-0.185336
-0.207884
-0.228254
-0.246451
-0.262588
-0.276801
-0.28921
-0.299898
-0.308921
-0.316315
-0.322101
-0.326284
-0.328867
-0.329915
-0.329424
-0.327412
-0.323904
-0.318919
-0.312476
-0.304585
-0.295238
-0.284393
-0.271949
-0.257708
-0.241358
-0.222489
-0.200717
-0.175996
-0.149117
-0.122152
-0.0983277
-0.0808747
-0.0712412
-0.0681195
-0.0684364
-0.0695303
-0.0703732
-0.0708298
0.00136402
-5.94007e-05
-0.00332492
-0.00938666
-0.0192442
-0.0335318
-0.0523918
-0.0752964
-0.101128
-0.12844
-0.15579
-0.182021
-0.206392
-0.22857
-0.248515
-0.266345
-0.282219
-0.296282
-0.308631
-0.319325
-0.328395
-0.335859
-0.34173
-0.346005
-0.348681
-0.349816
-0.349407
-0.347465
-0.344008
-0.339049
-0.332606
-0.324691
-0.315316
-0.30448
-0.292154
-0.278245
-0.262549
-0.244707
-0.22422
-0.200604
-0.173824
-0.144975
-0.116828
-0.0933949
-0.0780701
-0.0713701
-0.0705116
-0.0716921
-0.0727833
-0.073439
-0.00556595
-0.0072043
-0.0110909
-0.0183014
-0.0298442
-0.0462227
-0.0673146
-0.0922653
-0.119675
-0.147947
-0.175649
-0.201767
-0.225761
-0.247486
-0.267029
-0.284567
-0.300268
-0.314253
-0.326591
-0.337313
-0.346432
-0.353957
-0.359894
-0.36424
-0.366989
-0.368195
-0.36786
-0.365989
-0.362593
-0.357681
-0.351264
-0.34335
-0.333952
-0.323082
-0.310753
-0.296949
-0.281588
-0.264452
-0.24512
-0.222981
-0.197452
-0.168608
-0.13811
-0.109731
-0.0882474
-0.0765801
-0.0734275
-0.0743758
-0.0757742
-0.0766778
-0.0143867
-0.0162469
-0.0207346
-0.0290124
-0.0420507
-0.0601916
-0.0830457
-0.10947
-0.137857
-0.166543
-0.194181
-0.219929
-0.24344
-0.264713
-0.283913
-0.301233
-0.31682
-0.330764
-0.343102
-0.353845
-0.362995
-0.370556
-0.376535
-0.38093
-0.383733
-0.384994
-0.384724
-0.382919
-0.37959
-0.374743
-0.368382
-0.360511
-0.351136
-0.340267
-0.327926
-0.314136
-0.2989
-0.282143
-0.263615
-0.242803
-0.218943
-0.191387
-0.160529
-0.129019
-0.101932
-0.0843943
-0.0776442
-0.077742
-0.0794696
-0.0806582
-0.0247705
-0.0268438
-0.0318749
-0.0410826
-0.0553618
-0.0748837
-0.0990135
-0.126376
-0.155229
-0.183916
-0.211215
-0.23646
-0.259465
-0.280327
-0.299245
-0.316398
-0.331902
-0.345811
-0.35814
-0.368885
-0.378043
-0.385617
-0.391617
-0.396042
-0.398884
-0.400187
-0.39997
-0.398225
-0.394961
-0.390184
-0.383896
-0.376099
-0.366792
-0.355981
-0.343678
-0.329914
-0.31473
-0.298147
-0.280085
-0.260232
-0.237925
-0.212216
-0.1825
-0.14991
-0.118676
-0.0951898
-0.0836679
-0.0820215
-0.0839752
-0.0854932
-0.0362556
-0.0385184
-0.0440086
-0.0539756
-0.0692127
-0.0897286
-0.114681
-0.142523
-0.171447
-0.199853
-0.226656
-0.251353
-0.273874
-0.294375
-0.313058
-0.330075
-0.345504
-0.359371
-0.371672
-0.382399
-0.391546
-0.399117
-0.405122
-0.409565
-0.412436
-0.413769
-0.413596
-0.411902
-0.408698
-0.403987
-0.397776
-0.390065
-0.380853
-0.370141
-0.357933
-0.344251
-0.32914
-0.312661
-0.294851
-0.275603
-0.254487
-0.230614
-0.20285
-0.170942
-0.13751
-0.10891
-0.0919268
-0.0875075
-0.0893815
-0.0913023
-0.0483064
-0.0507222
-0.0565721
-0.0671171
-0.0830325
-0.104186
-0.129573
-0.157537
-0.186254
-0.214207
-0.240448
-0.264603
-0.286684
-0.306873
-0.325355
-0.342248
-0.357599
-0.371411
-0.383671
-0.394365
-0.403489
-0.411047
-0.417049
-0.421502
-0.424393
-0.425749
-0.425612
-0.423961
-0.420806
-0.416156
-0.410016
-0.40239
-0.39328
-0.382686
-0.37061
-0.357064
-0.342081
-0.325726
-0.308088
-0.289208
-0.268907
-0.24655
-0.220931
-0.190872
-0.157193
-0.125027
-0.102619
-0.0944802
-0.0957812
-0.0981979
-0.0603723
-0.0628943
-0.0690001
-0.0799486
-0.0962885
-0.117776
-0.143292
-0.171119
-0.199455
-0.226874
-0.252549
-0.2762
-0.297892
-0.317809
-0.336112
-0.352888
-0.368156
-0.381904
-0.394112
-0.404767
-0.413863
-0.421403
-0.427399
-0.431856
-0.434764
-0.436135
-0.436027
-0.43441
-0.431297
-0.426697
-0.420619
-0.41307
-0.404055
-0.393581
-0.38165
-0.36827
-0.353463
-0.337283
-0.319825
-0.301206
-0.281445
-0.260213
-0.236532
-0.208851
-0.176486
-0.14264
-0.115597
-0.103131
-0.103283
-0.106237
-0.0719386
-0.0745157
-0.0807722
-0.0919672
-0.108516
-0.130095
-0.155516
-0.18304
-0.210907
-0.237778
-0.26292
-0.286123
-0.307477
-0.327158
-0.345299
-0.361961
-0.377145
-0.390825
-0.40298
-0.413594
-0.422661
-0.430185
-0.436173
-0.440633
-0.443554
-0.444934
-0.44485
-0.44326
-0.440179
-0.435619
-0.429591
-0.422105
-0.413174
-0.402807
-0.391015
-0.377807
-0.363201
-0.347237
-0.33
-0.311628
-0.292257
-0.271825
-0.249708
-0.22443
-0.19437
-0.160658
-0.130344
-0.113474
-0.111943
-0.115358
-0.0825862
-0.0851245
-0.0914479
-0.102751
-0.119332
-0.140821
-0.165996
-0.193126
-0.220499
-0.246853
-0.271523
-0.294341
-0.315407
-0.334882
-0.352879
-0.369435
-0.384536
-0.398152
-0.410258
-0.420836
-0.429881
-0.437391
-0.443374
-0.447836
-0.450766
-0.452153
-0.452086
-0.450516
-0.447458
-0.442927
-0.436934
-0.429496
-0.42063
-0.410352
-0.398681
-0.385632
-0.371225
-0.355496
-0.338515
-0.320414
-0.30138
-0.281534
-0.260606
-0.23746
-0.210128
-0.177992
-0.146052
-0.125264
-0.121663
-0.125322
-0.0919975
-0.0943433
-0.100667
-0.111971
-0.128446
-0.149714
-0.174549
-0.201248
-0.22815
-0.254045
-0.278316
-0.300816
-0.321643
-0.340945
-0.358815
-0.375276
-0.390305
-0.403867
-0.415933
-0.426486
-0.435517
-0.443021
-0.449002
-0.453467
-0.456407
-0.4578
-0.457744
-0.456187
-0.453142
-0.448626
-0.442653
-0.435244
-0.42642
-0.416206
-0.404629
-0.391712
-0.377484
-0.361982
-0.345268
-0.327461
-0.30876
-0.289386
-0.269352
-0.247951
-0.223335
-0.19371
-0.161749
-0.137974
-0.1321
-0.135704
-0.099924
-0.101941
-0.108158
-0.119384
-0.135652
-0.156602
-0.181046
-0.207318
-0.233797
-0.259311
-0.283262
-0.30551
-0.326147
-0.345308
-0.363073
-0.379455
-0.394427
-0.40795
-0.419993
-0.430535
-0.439564
-0.447073
-0.453062
-0.457533
-0.460482
-0.461887
-0.461836
-0.460286
-0.457244
-0.452728
-0.446756
-0.439352
-0.430544
-0.420363
-0.408845
-0.396024
-0.381938
-0.366631
-0.350167
-0.332657
-0.314291
-0.295338
-0.275999
-0.255966
-0.233784
-0.207104
-0.176452
-0.150852
-0.14271
-0.145965
-0.106199
-0.1078
-0.113765
-0.12484
-0.14083
-0.161404
-0.18543
-0.211293
-0.237407
-0.262618
-0.286329
-0.30839
-0.328883
-0.347935
-0.365619
-0.381945
-0.39688
-0.410385
-0.422423
-0.432972
-0.442016
-0.449544
-0.455551
-0.460038
-0.462998
-0.464415
-0.464366
-0.462821
-0.459771
-0.455242
-0.449253
-0.44183
-0.433006
-0.422822
-0.411321
-0.398549
-0.384556
-0.369396
-0.353139
-0.335897
-0.317853
-0.299291
-0.280519
-0.261546
-0.241402
-0.217701
-0.189291
-0.163052
-0.152856
-0.155534
-0.110755
-0.111882
-0.117449
-0.128277
-0.14393
-0.164073
-0.187657
-0.213128
-0.238935
-0.263924
-0.287479
-0.309429
-0.329837
-0.348821
-0.366453
-0.382746
-0.397669
-0.411178
-0.423235
-0.433811
-0.442887
-0.450447
-0.456482
-0.460986
-0.463954
-0.465376
-0.465323
-0.463782
-0.460716
-0.456159
-0.450133
-0.442667
-0.433797
-0.423572
-0.412045
-0.399273
-0.385316
-0.370239
-0.354126
-0.337095
-0.319332
-0.301121
-0.28283
-0.264684
-0.246172
-0.22522
-0.199577
-0.173757
-0.161908
-0.16387
-0.113621
-0.114242
-0.119273
-0.129744
-0.144993
-0.164651
-0.187754
-0.212827
-0.238355
-0.263178
-0.286645
-0.308547
-0.328923
-0.347882
-0.365502
-0.381796
-0.396739
-0.410285
-0.422394
-0.433032
-0.442172
-0.449797
-0.455891
-0.460444
-0.46345
-0.464893
-0.464817
-0.463245
-0.460129
-0.455505
-0.449402
-0.441852
-0.432901
-0.422596
-0.410997
-0.39817
-0.384185
-0.369122
-0.353078
-0.336182
-0.318627
-0.300708
-0.28282
-0.265324
-0.248087
-0.229513
-0.206816
-0.182254
-0.169292
-0.170491
-0.114903
-0.115021
-0.119396
-0.129367
-0.144128
-0.163231
-0.185797
-0.210442
-0.235696
-0.260386
-0.283815
-0.305724
-0.32612
-0.3451
-0.362742
-0.379071
-0.394063
-0.407678
-0.419868
-0.430596
-0.439829
-0.447543
-0.453716
-0.458336
-0.461393
-0.462875
-0.462801
-0.461209
-0.458043
-0.453343
-0.447143
-0.439475
-0.430385
-0.419932
-0.408186
-0.395225
-0.381135
-0.366007
-0.349946
-0.333093
-0.315657
-0.297943
-0.280372
-0.263385
-0.247126
-0.230511
-0.210687
-0.187973
-0.174513
-0.174979
-0.114779
-0.11443
-0.118051
-0.127351
-0.1415
-0.159952
-0.181896
-0.206049
-0.230998
-0.255558
-0.278981
-0.300944
-0.32141
-0.340456
-0.358163
-0.374562
-0.38964
-0.403358
-0.415665
-0.426518
-0.435877
-0.443711
-0.449992
-0.454702
-0.457827
-0.459355
-0.459287
-0.457675
-0.454451
-0.449658
-0.443336
-0.435519
-0.426258
-0.415615
-0.403667
-0.3905
-0.376207
-0.360896
-0.344696
-0.327773
-0.310347
-0.292735
-0.275378
-0.258772
-0.243251
-0.228188
-0.210997
-0.190482
-0.177143
-0.17697
-0.113477
-0.112732
-0.115538
-0.123971
-0.137339
-0.155006
-0.176202
-0.199752
-0.224316
-0.24871
-0.272128
-0.294175
-0.314754
-0.333915
-0.351732
-0.368247
-0.383453
-0.397315
-0.409781
-0.420801
-0.430326
-0.438317
-0.44474
-0.449568
-0.452782
-0.454367
-0.454314
-0.452681
-0.449393
-0.444492
-0.438024
-0.430025
-0.420546
-0.409658
-0.397442
-0.383992
-0.369412
-0.353822
-0.337366
-0.320227
-0.302658
-0.285011
-0.267749
-0.251395
-0.236415
-0.222535
-0.207649
-0.189472
-0.176815
-0.176138
-0.111262
-0.11022
-0.112196
-0.119564
-0.131935
-0.148636
-0.168912
-0.191694
-0.215734
-0.239868
-0.263241
-0.285375
-0.306101
-0.325426
-0.343408
-0.36009
-0.375475
-0.38953
-0.402203
-0.413437
-0.423174
-0.431365
-0.437968
-0.442949
-0.446279
-0.447942
-0.44792
-0.446265
-0.442913
-0.437894
-0.431256
-0.423041
-0.413302
-0.402112
-0.389558
-0.37574
-0.360773
-0.344789
-0.32795
-0.310461
-0.292605
-0.274763
-0.257441
-0.241196
-0.226575
-0.213554
-0.200603
-0.184738
-0.173205
-0.172187
-0.108412
-0.107187
-0.108369
-0.114506
-0.12563
-0.141132
-0.160264
-0.182055
-0.205367
-0.229085
-0.252318
-0.274506
-0.295396
-0.31493
-0.333136
-0.350049
-0.365675
-0.379983
-0.39292
-0.404423
-0.414426
-0.422868
-0.429698
-0.434871
-0.438353
-0.44012
-0.440151
-0.438481
-0.435066
-0.429921
-0.423095
-0.414633
-0.40459
-0.393041
-0.380077
-0.365803
-0.350344
-0.333844
-0.316483
-0.298493
-0.280188
-0.261991
-0.244452
-0.228166
-0.213727
-0.201266
-0.189869
-0.17616
-0.166028
-0.164835
-0.105195
-0.1039
-0.104378
-0.109181
-0.118804
-0.132825
-0.150537
-0.171056
-0.193369
-0.21644
-0.239372
-0.261534
-0.282575
-0.302355
-0.320851
-0.338072
-0.354016
-0.368653
-0.381926
-0.393766
-0.404098
-0.412851
-0.419962
-0.425376
-0.429051
-0.430955
-0.431064
-0.429395
-0.425925
-0.420651
-0.41362
-0.404883
-0.394495
-0.38253
-0.369082
-0.354263
-0.338202
-0.321058
-0.30303
-0.284378
-0.265456
-0.246731
-0.228808
-0.212328
-0.19793
-0.185745
-0.175505
-0.163697
-0.155038
-0.15381
-0.101846
-0.100578
-0.100485
-0.103942
-0.111851
-0.124083
-0.140042
-0.158948
-0.179923
-0.202042
-0.224439
-0.246432
-0.267571
-0.287616
-0.306467
-0.324086
-0.340447
-0.355509
-0.369209
-0.381471
-0.392211
-0.401346
-0.408802
-0.414516
-0.418434
-0.420516
-0.420733
-0.41909
-0.415577
-0.410174
-0.402929
-0.393892
-0.383119
-0.370684
-0.356681
-0.341223
-0.32445
-0.306532
-0.28769
-0.268215
-0.248505
-0.229079
-0.210598
-0.193758
-0.179252
-0.167138
-0.157643
-0.147391
-0.140045
-0.138855
-0.0985516
-0.0973801
-0.0968788
-0.0990821
-0.10515
-0.115292
-0.129124
-0.146016
-0.165248
-0.186034
-0.207583
-0.229192
-0.250322
-0.270622
-0.289886
-0.308003
-0.3249
-0.340509
-0.354753
-0.367544
-0.378788
-0.388393
-0.396274
-0.402355
-0.406575
-0.408885
-0.409251
-0.407663
-0.404125
-0.398602
-0.391137
-0.381781
-0.370588
-0.357631
-0.343001
-0.326817
-0.309223
-0.290404
-0.270604
-0.250151
-0.229489
-0.209196
-0.189992
-0.172629
-0.157833
-0.145652
-0.13648
-0.127364
-0.12095
-0.11974
-0.095442
-0.0944067
-0.0936664
-0.0948027
-0.0990221
-0.106831
-0.118144
-0.13257
-0.14959
-0.168597
-0.18891
-0.209844
-0.230795
-0.251293
-0.271008
-0.289723
-0.30729
-0.323594
-0.338526
-0.351982
-0.363853
-0.374037
-0.382437
-0.388969
-0.393562
-0.396161
-0.396724
-0.395229
-0.391691
-0.386061
-0.378377
-0.368688
-0.357046
-0.34352
-0.328201
-0.311209
-0.292694
-0.272859
-0.251971
-0.230399
-0.208637
-0.187327
-0.167248
-0.149201
-0.133941
-0.121521
-0.112282
-0.103801
-0.0977412
-0.0962299
-0.0925947
-0.0917139
-0.0908882
-0.0912034
-0.093693
-0.0990274
-0.107457
-0.118932
-0.133222
-0.149944
-0.168571
-0.188474
-0.209008
-0.229593
-0.24976
-0.26916
-0.287537
-0.304701
-0.320493
-0.334777
-0.347425
-0.35832
-0.367356
-0.374439
-0.379491
-0.382449
-0.383268
-0.381916
-0.378407
-0.372693
-0.364799
-0.35477
-0.342659
-0.328528
-0.312469
-0.294602
-0.275086
-0.25414
-0.23206
-0.209255
-0.186276
-0.163823
-0.142737
-0.123855
-0.10795
-0.0950349
-0.0854044
-0.0769304
-0.0704708
-0.0679829
-0.0900422
-0.0893243
-0.0885359
-0.0882886
-0.0892642
-0.0921057
-0.0973588
-0.105409
-0.116425
-0.130325
-0.146777
-0.165244
-0.185066
-0.205569
-0.226142
-0.246281
-0.265595
-0.283787
-0.300625
-0.315924
-0.329523
-0.341288
-0.351098
-0.358851
-0.364463
-0.367866
-0.36901
-0.36786
-0.36442
-0.358653
-0.350567
-0.340206
-0.327618
-0.312865
-0.296036
-0.277254
-0.256687
-0.234573
-0.211236
-0.187129
-0.162853
-0.139167
-0.11696
-0.097094
-0.0803347
-0.0666156
-0.0562781
-0.0470211
-0.0393408
-0.0345992
-0.0877757
-0.0872335
-0.0865728
-0.0859871
-0.0856972
-0.0861332
-0.0880323
-0.0922534
-0.0994768
-0.11002
-0.123803
-0.140412
-0.159198
-0.179405
-0.200284
-0.221169
-0.241512
-0.260883
-0.27895
-0.295455
-0.310194
-0.323002
-0.333742
-0.342302
-0.348591
-0.352538
-0.35409
-0.353209
-0.349892
-0.344116
-0.335873
-0.325202
-0.312153
-0.296787
-0.279192
-0.259496
-0.237878
-0.214591
-0.189993
-0.16457
-0.138971
-0.113996
-0.0905617
-0.0695394
-0.0516649
-0.0367931
-0.0253729
-0.014403
-0.00498988
0.00398021
-0.0857384
-0.085402
-0.0849389
-0.0841665
-0.0828123
-0.0809799
-0.0794746
-0.0795991
-0.0826152
-0.0893359
-0.100005
-0.114363
-0.131792
-0.151471
-0.172518
-0.194106
-0.215518
-0.236173
-0.255618
-0.273503
-0.289561
-0.303586
-0.315417
-0.324929
-0.332022
-0.336623
-0.338677
-0.338147
-0.335022
-0.329297
-0.32095
-0.31002
-0.296557
-0.280626
-0.262317
-0.241763
-0.219156
-0.194768
-0.168976
-0.142298
-0.115404
-0.0891117
-0.0643319
-0.0419092
-0.0225328
-0.00601603
0.00707585
0.0208241
0.0317394
0.047566
-0.0838094
-0.0837339
-0.0835264
-0.082623
-0.0802909
-0.0763051
-0.0714585
-0.0674143
-0.0660089
-0.0686065
-0.0758364
-0.0876389
-0.103444
-0.122376
-0.143436
-0.165638
-0.188101
-0.210084
-0.230998
-0.250388
-0.267909
-0.2833
-0.296368
-0.306968
-0.314991
-0.320358
-0.323016
-0.322929
-0.32008
-0.314481
-0.306111
-0.295004
-0.281216
-0.264817
-0.245905
-0.224622
-0.20117
-0.175834
-0.149005
-0.121206
-0.0931009
-0.0654783
-0.0391917
-0.0150066
0.00647705
0.0255029
0.0414754
0.0594574
0.0717883
0.098242
-0.0817941
-0.082046
-0.0821274
-0.0810379
-0.0776722
-0.0715851
-0.063551
-0.0554966
-0.0497451
-0.0481899
-0.051873
-0.0609697
-0.0749861
-0.0930099
-0.113937
-0.136639
-0.160079
-0.183362
-0.205762
-0.226709
-0.245771
-0.262624
-0.277033
-0.288827
-0.297884
-0.304121
-0.307481
-0.307932
-0.305459
-0.300078
-0.29179
-0.280624
-0.266643
-0.24993
-0.230593
-0.208782
-0.18471
-0.158666
-0.131035
-0.102314
-0.0731153
-0.0441397
-0.0161203
0.0103257
0.0347639
0.0576249
0.0785175
0.103288
0.120283
0.163321
-0.0794787
-0.0800864
-0.0804538
-0.079014
-0.0744151
-0.0662049
-0.0552253
-0.0435643
-0.0338822
-0.0284964
-0.0288271
-0.0352972
-0.0475149
-0.0645584
-0.0852431
-0.108323
-0.132622
-0.157108
-0.180925
-0.203391
-0.223985
-0.242318
-0.258104
-0.271143
-0.281297
-0.288472
-0.292614
-0.293693
-0.291698
-0.286644
-0.278559
-0.267479
-0.253481
-0.236659
-0.217133
-0.195061
-0.170658
-0.144202
-0.116047
-0.0866236
-0.0564382
-0.0260376
0.00404379
0.033419
0.0619073
0.0902584
0.118478
0.153659
0.183433
0.248114
-0.0769671
-0.0778162
-0.0783146
-0.0762697
-0.0702204
-0.0597922
-0.0461234
-0.0314653
-0.0185865
-0.0100489
-0.0075587
-0.0117532
-0.0223547
-0.0384632
-0.0588523
-0.0821926
-0.107201
-0.13273
-0.157813
-0.181669
-0.203692
-0.223428
-0.240544
-0.254806
-0.266056
-0.274193
-0.279159
-0.280928
-0.2795
-0.274892
-0.267143
-0.256302
-0.242467
-0.225755
-0.206293
-0.18424
-0.159798
-0.133216
-0.104786
-0.0748382
-0.0437164
-0.0117374
0.0208705
0.0541006
0.0881972
0.124352
0.162877
0.212532
0.260031
0.338593
-0.0755449
-0.0762433
-0.076372
-0.0731483
-0.0652683
-0.0526155
-0.0365347
-0.0195359
-0.00439691
0.00638035
0.0108972
0.0083717
-0.000995455
-0.016343
-0.0364468
-0.05994
-0.0854733
-0.11182
-0.13793
-0.162943
-0.186185
-0.207141
-0.225437
-0.240807
-0.253073
-0.262124
-0.267898
-0.270374
-0.269558
-0.265484
-0.258206
-0.247767
-0.234255
-0.217815
-0.198597
-0.176758
-0.152475
-0.125949
-0.0973916
-0.0670041
-0.0349274
-0.00116905
0.0345022
0.072753
0.11475
0.162824
0.218042
0.289164
0.349526
0.424492
-0.0797176
-0.0790188
-0.0774109
-0.0718018
-0.0612546
-0.0460149
-0.0276871
-0.00887322
0.00764617
0.0196588
0.0253991
0.0238655
0.0152451
0.000376803
-0.0195399
-0.0431362
-0.0690352
-0.0959664
-0.122827
-0.148705
-0.172873
-0.194775
-0.214001
-0.23026
-0.243356
-0.253169
-0.259635
-0.262732
-0.262472
-0.258896
-0.252067
-0.242075
-0.228997
-0.212914
-0.193985
-0.172387
-0.148285
-0.121832
-0.0931594
-0.0623309
-0.029262
0.00641198
0.0455396
0.0898352
0.142217
0.207907
0.2917
0.403616
0.495873
0.603449
-0.10315
-0.0953311
-0.0868862
-0.0760982
-0.0617343
-0.0434012
-0.0227434
-0.00233988
0.0153611
0.0281481
0.0343308
0.0332216
0.0250115
0.0104906
-0.00918717
-0.0326873
-0.0586484
-0.085796
-0.113008
-0.139344
-0.164045
-0.186524
-0.206345
-0.223195
-0.236862
-0.247214
-0.254182
-0.257742
-0.257906
-0.254717
-0.248241
-0.238563
-0.225782
-0.210007
-0.191364
-0.169992
-0.146041
-0.119636
-0.0908407
-0.0595927
-0.0255903
0.0119099
0.0544227
0.104868
0.168375
0.254436
0.375726
0.555767
0.767724
1.10788
-0.189986
-0.112232
-0.0806453
-0.0714168
-0.0581382
-0.0387625
-0.0170617
0.00394951
0.0217613
0.0341975
0.0398524
0.0382424
0.0296394
0.0148627
-0.00494081
-0.0284732
-0.0544191
-0.0815427
-0.108749
-0.135112
-0.159877
-0.182457
-0.202409
-0.219413
-0.233251
-0.243786
-0.250941
-0.254691
-0.255046
-0.252047
-0.245759
-0.236266
-0.223668
-0.208074
-0.189605
-0.168394
-0.144574
-0.118242
-0.0894045
-0.0579018
-0.0232681
0.0155204
0.0604556
0.11528
0.186551
0.286613
0.435355
0.680411
1.0794
1.82856
)
;

boundaryField
{
    movingWall
    {
        type            zeroGradient;
    }
    fixedWalls
    {
        type            zeroGradient;
    }
    frontAndBack
    {
        type            empty;
    }
}


// ************************************************************************* //
