/*--------------------------------*- C++ -*----------------------------------*\
  =========                 |
  \\      /  F ield         | OpenFOAM: The Open Source CFD Toolbox
   \\    /   O peration     | Website:  https://openfoam.org
    \\  /    A nd           | Version:  7
     \\/     M anipulation  |
\*---------------------------------------------------------------------------*/
FoamFile
{
    version     2.0;
    format      ascii;
    class       surfaceScalarField;
    location    "2000";
    object      phi;
}
// * * * * * * * * * * * * * * * * * * * * * * * * * * * * * * * * * * * * * //

dimensions      [0 3 -1 0 0 0 0];

internalField   nonuniform List<scalar> 
4900
(
1.70081e-06
-1.70266e-06
6.22436e-06
-4.52356e-06
1.17167e-05
-5.49235e-06
1.65025e-05
-4.78583e-06
1.97499e-05
-3.24734e-06
2.13889e-05
-1.63909e-06
2.17675e-05
-3.78536e-07
2.1262e-05
5.05463e-07
2.00157e-05
1.24623e-06
1.78648e-05
2.15095e-06
1.44159e-05
3.44883e-06
9.18238e-06
5.23354e-06
1.67304e-06
7.50933e-06
-8.56404e-06
1.02371e-05
-2.18782e-05
1.33142e-05
-3.84322e-05
1.6554e-05
-5.81302e-05
1.96979e-05
-8.05365e-05
2.24063e-05
-0.000104812
2.4276e-05
-0.000129701
2.48886e-05
-0.000153575
2.38736e-05
-0.000174547
2.09723e-05
-0.000190636
1.60894e-05
-0.000199968
9.33174e-06
-0.000201022
1.05367e-06
-0.000192857
-8.16491e-06
-0.00017523
-1.76268e-05
-0.000148664
-2.65663e-05
-0.000114453
-3.42114e-05
-7.46216e-05
-3.98309e-05
-3.18236e-05
-4.27981e-05
1.08253e-05
-4.26488e-05
5.00686e-05
-3.92433e-05
8.30562e-05
-3.29877e-05
0.000107613
-2.4557e-05
0.000122476
-1.48628e-05
0.000127532
-5.05572e-06
0.000123863
3.66847e-06
0.000113469
1.03945e-05
9.87403e-05
1.47285e-05
8.20207e-05
1.67196e-05
6.52472e-05
1.67736e-05
4.97647e-05
1.54825e-05
3.63068e-05
1.34579e-05
2.51005e-05
1.12062e-05
1.60379e-05
9.06263e-06
8.89201e-06
7.1459e-06
3.59351e-06
5.2985e-06
5.04917e-07
3.08859e-06
5.04917e-07
4.47537e-06
-6.17803e-06
1.38492e-05
-1.38974e-05
2.43111e-05
-1.59542e-05
3.28993e-05
-1.33741e-05
3.80021e-05
-8.35011e-06
3.92288e-05
-2.86587e-06
3.68614e-05
1.98888e-06
3.12066e-05
6.16023e-06
2.21564e-05
1.02963e-05
9.08317e-06
1.52242e-05
-9.01025e-06
2.15422e-05
-3.32245e-05
2.94477e-05
-6.4459e-05
3.87439e-05
-0.000103154
4.89315e-05
-0.000149078
5.9239e-05
-0.000201173
6.86488e-05
-0.000257492
7.60162e-05
-0.000315324
8.02384e-05
-0.000371472
8.04247e-05
-0.000422602
7.60178e-05
-0.000465573
6.68453e-05
-0.00049771
5.3109e-05
-0.000516959
3.53382e-05
-0.000521976
1.43493e-05
-0.000512216
-8.70618e-06
-0.000487774
-3.26075e-05
-0.000449288
-5.61122e-05
-0.000397963
-7.7892e-05
-0.000335622
-9.65519e-05
-0.000264742
-0.000110711
-0.000188416
-0.000119123
-0.000110221
-0.000120844
-3.40352e-05
-0.000115429
3.60681e-05
-0.000103091
9.63974e-05
-8.48862e-05
0.000144138
-6.26032e-05
0.000177368
-3.82856e-05
0.000195298
-1.42622e-05
0.000198524
7.16824e-06
0.000189145
2.41079e-05
0.000170309
3.55555e-05
0.000145608
4.14748e-05
0.00011845
4.264e-05
9.1602e-05
4.03063e-05
6.69289e-05
3.58794e-05
4.54176e-05
3.05739e-05
2.7458e-05
2.51055e-05
1.33342e-05
1.94224e-05
3.75509e-06
1.26677e-05
4.26001e-06
5.98745e-06
-1.21655e-05
1.73375e-05
-2.52475e-05
2.8802e-05
-2.74188e-05
3.68231e-05
-2.13952e-05
3.9539e-05
-1.1066e-05
3.63609e-05
3.12169e-07
2.72259e-05
1.11238e-05
1.1927e-05
2.14592e-05
-1.03006e-05
3.25239e-05
-4.07337e-05
4.56572e-05
-8.07317e-05
6.15402e-05
-0.000131218
7.99339e-05
-0.000192258
9.97837e-05
-0.000262747
0.000119421
-0.000340341
0.000136833
-0.000421682
0.00014999
-0.000502855
0.000157189
-0.000579908
0.000157291
-0.000649294
0.000149811
-0.000708148
0.000134872
-0.000754387
0.000113085
-0.000786661
8.5383e-05
-0.000804203
5.28798e-05
-0.000806653
1.6799e-05
-0.000793878
-2.14806e-05
-0.000765906
-6.05801e-05
-0.000723045
-9.89727e-05
-0.00066602
-0.000134917
-0.000596067
-0.000166505
-0.000515043
-0.000191735
-0.000425474
-0.000208693
-0.000330549
-0.000215769
-0.000234052
-0.000211927
-0.00014012
-0.000197022
-5.29879e-05
-0.000172019
2.33845e-05
-0.000138975
8.60268e-05
-0.000100928
0.000133147
-6.13825e-05
0.000163779
-2.34635e-05
0.000178066
9.82089e-06
0.000177547
3.60746e-05
0.000165025
5.39966e-05
0.000144049
6.36158e-05
0.000118301
6.60544e-05
9.10409e-05
6.31395e-05
6.47424e-05
5.68724e-05
4.10641e-05
4.87839e-05
2.1207e-05
3.92794e-05
6.60685e-06
2.72678e-05
1.08669e-05
6.50882e-06
-1.86743e-05
1.75977e-05
-3.63363e-05
2.69536e-05
-3.67747e-05
3.07617e-05
-2.52034e-05
2.72162e-05
-7.52045e-06
1.56237e-05
1.19046e-05
-4.55085e-06
3.12984e-05
-3.43212e-05
5.12295e-05
-7.52102e-05
7.34128e-05
-0.000128695
9.91416e-05
-0.000195505
0.000128351
-0.000275061
0.00015949
-0.000365239
0.000189961
-0.000462551
0.000216733
-0.000562683
0.000236965
-0.000661187
0.000248494
-0.000754091
0.000250092
-0.000838254
0.000241454
-0.00091146
0.000223017
-0.000972306
0.000195717
-0.00101997
0.000160752
-0.00105397
0.000119378
-0.00107392
7.28355e-05
-0.00107952
2.23963e-05
-0.00107039
-3.06094e-05
-0.00104623
-8.47412e-05
-0.00100686
-0.000138342
-0.000952349
-0.00018943
-0.000883129
-0.000235724
-0.000800143
-0.000274722
-0.000705006
-0.00030383
-0.000600198
-0.000320576
-0.000489149
-0.000322975
-0.000376142
-0.000310029
-0.000266006
-0.000282155
-0.000163586
-0.000241395
-7.32038e-05
-0.000191311
1.86862e-06
-0.000136455
6.00584e-05
-8.16533e-05
0.000101063
-3.11835e-05
0.000125137
1.20005e-05
0.000133572
4.55617e-05
0.000128874
6.83139e-05
0.000114339
8.05891e-05
9.35508e-05
8.39277e-05
6.98712e-05
8.0552e-05
4.61163e-05
7.25387e-05
2.46362e-05
6.07596e-05
7.92822e-06
4.39758e-05
1.87951e-05
6.20588e-06
-2.48802e-05
1.48977e-05
-4.50282e-05
1.92106e-05
-4.10877e-05
1.54837e-05
-2.14764e-05
2.16986e-06
5.79333e-06
-2.16146e-05
3.5689e-05
-5.70461e-05
6.67299e-05
-0.000105851
0.000100034
-0.000169653
0.000137215
-0.000249016
0.000178504
-0.000342756
0.000222091
-0.000447857
0.000264591
-0.000559939
0.000302043
-0.00067406
0.000330853
-0.00078554
0.000348446
-0.000890564
0.000353518
-0.000986403
0.000345931
-0.00107133
0.000326385
-0.00114439
0.000296077
-0.00120511
0.000256435
-0.00125325
0.000208887
-0.00128862
0.00015475
-0.00131109
9.53039e-05
-0.00132052
3.18312e-05
-0.00131666
-3.4474e-05
-0.00129909
-0.000102307
-0.00126733
-0.000170103
-0.00122084
-0.000235919
-0.00115911
-0.000297453
-0.00108183
-0.000352006
-0.000989206
-0.000396452
-0.000882371
-0.000427411
-0.000763639
-0.000441708
-0.000636698
-0.00043697
-0.0005066
-0.000412253
-0.000379377
-0.000368618
-0.000261239
-0.000309449
-0.000157484
-0.00024021
-7.16322e-05
-0.000167505
-5.12359e-06
-9.76922e-05
4.25842e-05
-3.57073e-05
7.2736e-05
1.54099e-05
8.69355e-05
5.41145e-05
8.77107e-05
7.98138e-05
7.82708e-05
9.33675e-05
6.2128e-05
9.66948e-05
4.2743e-05
9.19238e-05
2.34096e-05
8.0093e-05
7.60362e-06
5.97817e-05
2.63987e-05
4.89961e-06
-2.97798e-05
8.88473e-06
-4.90133e-05
5.29808e-06
-3.7501e-05
-8.91059e-06
-7.26774e-06
-3.50856e-05
3.19684e-05
-7.43896e-05
7.49929e-05
-0.000128541
0.000120881
-0.000199288
0.000170781
-0.000287189
0.000225117
-0.000390724
0.000282039
-0.000506246
0.000337613
-0.000628695
0.000387041
-0.000752624
0.000425972
-0.000873123
0.000451352
-0.00098639
0.000461713
-0.00108987
0.000456995
-0.00118206
0.000438128
-0.00126227
0.000406587
-0.00133029
0.0003641
-0.00138627
0.000312415
-0.0014305
0.000253121
-0.00146339
0.00018764
-0.0014854
0.000117309
-0.00149686
4.32892e-05
-0.00149781
-3.35167e-05
-0.00148801
-0.000112111
-0.00146687
-0.00019124
-0.00143339
-0.000269401
-0.00138614
-0.000344709
-0.00132351
-0.000414637
-0.00124408
-0.000475877
-0.001147
-0.00052449
-0.00103246
-0.000556248
-0.000902303
-0.000567128
-0.000760498
-0.000554059
-0.000613193
-0.000515922
-0.000468176
-0.000454466
-0.000333692
-0.000374694
-0.000216804
-0.000284392
-0.000121821
-0.000192675
-4.96978e-05
-0.00010783
1.2023e-06
-3.54902e-05
3.34813e-05
2.18355e-05
4.96906e-05
6.36046e-05
5.27892e-05
9.02689e-05
4.61916e-05
0.000103292
3.36006e-05
0.000104515
1.88769e-05
9.48166e-05
6.11513e-06
7.25435e-05
3.25138e-05
2.27676e-06
-3.20566e-05
-9.07467e-07
-4.58291e-05
-1.49924e-05
-2.34161e-05
-4.21708e-05
1.99106e-05
-8.36254e-05
7.3423e-05
-0.000140791
0.000132158
-0.000215367
0.000195457
-0.000308033
0.000263448
-0.000417256
0.00033434
-0.000539092
0.000403875
-0.000667996
0.000466516
-0.000798034
0.00051708
-0.000923936
0.000551874
-0.00104168
0.000569097
-0.00114861
0.000568645
-0.00124325
0.000551637
-0.00132502
0.00051989
-0.00139398
0.00047555
-0.00145072
0.000420843
-0.00149615
0.00035784
-0.00153134
0.000288318
-0.00155751
0.000213804
-0.00157573
0.000135533
-0.00158678
5.43389e-05
-0.0015911
-2.91965e-05
-0.00158876
-0.000114457
-0.00157926
-0.00020074
-0.00156138
-0.000287276
-0.00153325
-0.00037284
-0.00149245
-0.000455432
-0.00143618
-0.000532154
-0.00136148
-0.000599189
-0.00126593
-0.000651797
-0.0011485
-0.00068456
-0.00101041
-0.000692144
-0.000855855
-0.00067048
-0.000692215
-0.000618106
-0.000529537
-0.000537373
-0.000378846
-0.000435084
-0.000249624
-0.000321897
-0.000147343
-0.000210111
-7.2459e-05
-0.000110374
-2.16687e-05
-2.89548e-05
9.35055e-06
3.25854e-05
2.44565e-05
7.51629e-05
2.74331e-05
0.000100316
2.22377e-05
0.00010971
1.30505e-05
0.000104004
4.21424e-06
8.13798e-05
3.67281e-05
-1.91385e-06
-3.01427e-05
-1.46442e-05
-3.30988e-05
-4.13078e-05
3.2475e-06
-8.31962e-05
6.1799e-05
-0.000141321
0.000131548
-0.000217082
0.000207919
-0.000311262
0.000289637
-0.000422581
0.000374767
-0.000547149
0.000458908
-0.000679164
0.000535889
-0.000812238
0.00059959
-0.000940608
0.00064545
-0.00105983
0.000671093
-0.00116693
0.000676202
-0.0012603
0.00066201
-0.00133938
0.00063072
-0.00140451
0.000585016
-0.00145669
0.000527736
-0.00149744
0.000461584
-0.00152847
0.000388878
-0.00155164
0.000311487
-0.00156868
0.000230846
-0.00158102
0.000147865
-0.00158969
6.30102e-05
-0.00159547
-2.34159e-05
-0.00159868
-0.000111247
-0.00159901
-0.000200404
-0.00159551
-0.000290778
-0.00158653
-0.000381822
-0.00156958
-0.000472381
-0.0015412
-0.000560538
-0.0014971
-0.000643281
-0.00143274
-0.000716158
-0.00134401
-0.000773288
-0.00122833
-0.00080783
-0.00108592
-0.00081289
-0.00092108
-0.000782946
-0.000742694
-0.000715759
-0.000563517
-0.00061426
-0.000397914
-0.0004875
-0.000258273
-0.000349752
-0.000151365
-0.000217282
-7.68314e-05
-0.000103489
-2.92039e-05
-1.50421e-05
-2.05448e-06
4.80135e-05
9.98732e-06
8.82739e-05
1.17388e-05
0.000107959
7.79581e-06
0.000107947
2.60227e-06
8.65733e-05
3.93303e-05
-7.7402e-06
-2.24025e-05
-3.18872e-05
-8.95185e-06
-7.24788e-05
4.38391e-05
-0.000129774
0.000119094
-0.000204594
0.000206369
-0.000297671
0.000300996
-0.000408114
0.00040008
-0.000532418
0.000499071
-0.00066481
0.0005913
-0.00079856
0.000669638
-0.000927353
0.000728384
-0.00104617
0.000764269
-0.00115159
0.000776516
-0.00124173
0.00076634
-0.00131603
0.000736307
-0.00137504
0.000689725
-0.00142018
0.000630163
-0.00145351
0.00056106
-0.00147732
0.000485397
-0.00149394
0.000405503
-0.00150553
0.00032307
-0.00151386
0.000239175
-0.00152031
0.000154316
-0.00152595
6.86546e-05
-0.00153157
-1.7794e-05
-0.00153756
-0.000105262
-0.0015439
-0.000194059
-0.00155025
-0.000284435
-0.00155565
-0.000376421
-0.00155824
-0.000469787
-0.00155501
-0.000563769
-0.00154172
-0.000656577
-0.00151293
-0.000744946
-0.00146238
-0.000823832
-0.00138393
-0.000886281
-0.00127312
-0.000923701
-0.00112907
-0.000927001
-0.000956135
-0.00088869
-0.000764828
-0.000805567
-0.000571028
-0.0006813
-0.000392964
-0.000527816
-0.000246171
-0.000364075
-0.000138383
-0.000211277
-6.76904e-05
-8.57342e-05
-2.58848e-05
6.20791e-06
-4.3028e-06
6.66919e-05
3.87608e-06
9.97799e-05
4.28527e-06
0.000107538
1.71563e-06
8.91429e-05
4.1046e-05
-1.49302e-05
-7.47239e-06
-5.16551e-05
2.77731e-05
-0.000106473
9.86569e-05
-0.00017871
0.00019133
-0.000268716
0.000296376
-0.000375954
0.000408233
-0.000497558
0.000521683
-0.000628131
0.000629645
-0.000760822
0.000723991
-0.00088881
0.000797626
-0.00100643
0.000846004
-0.00110969
0.000867527
-0.00119633
0.000863157
-0.0012657
0.000835714
-0.00131854
0.000789147
-0.00135667
0.000727854
-0.00138263
0.00065612
-0.00139924
0.000577671
-0.00140923
0.000495387
-0.00141499
0.000411257
-0.00141841
0.000326494
-0.0014209
0.000241665
-0.00142346
0.00015688
-0.00142686
7.20497e-05
-0.00143159
-1.30658e-05
-0.00143799
-9.88607e-05
-0.00144634
-0.000185706
-0.00145683
-0.000273949
-0.00146927
-0.000363974
-0.0014829
-0.000456158
-0.00149605
-0.000550618
-0.00150577
-0.000646865
-0.00150732
-0.000743392
-0.0014941
-0.000837052
-0.00145809
-0.000922293
-0.00139105
-0.000990744
-0.00128644
-0.00103161
-0.00114197
-0.00103315
-0.0009621
-0.000985442
-0.000759346
-0.000884054
-0.000553296
-0.000733867
-0.000366416
-0.000550955
-0.000217183
-0.00036051
-0.000113327
-0.00018959
-5.01768e-05
-5.69423e-05
-1.63296e-05
3.28448e-05
-1.2842e-06
8.47345e-05
2.75121e-06
0.000103502
1.64912e-06
9.0245e-05
4.26951e-05
-2.29851e-05
1.55127e-05
-7.24389e-05
7.72269e-05
-0.000140698
0.000166916
-0.000226251
0.000276883
-0.000328574
0.000398699
-0.000445544
0.000525203
-0.000572495
0.000648635
-0.000702794
0.000759943
-0.000829284
0.000850481
-0.000945656
0.000913998
-0.00104725
0.000947596
-0.00113131
0.000951593
-0.00119699
0.000928832
-0.00124509
0.000883815
-0.00127776
0.000821821
-0.00129801
0.000748106
-0.00130915
0.000667254
-0.00131427
0.000582792
-0.00131596
0.000497074
-0.00131613
0.00041143
-0.00131606
0.000326426
-0.00131651
0.000242119
-0.00131795
0.000158317
-0.00132064
7.47396e-05
-0.00132475
-8.95514e-06
-0.00133052
-9.30909e-05
-0.0013383
-0.000177931
-0.00134849
-0.000263758
-0.00136148
-0.000350982
-0.00137753
-0.000440105
-0.00139649
-0.000531662
-0.00141722
-0.000626135
-0.00143697
-0.00072364
-0.0014508
-0.000823224
-0.00145123
-0.000921862
-0.00142853
-0.00101344
-0.00137207
-0.00108807
-0.00127295
-0.00113227
-0.00112751
-0.00113089
-0.000940617
-0.00107094
-0.000727453
-0.000947031
-0.000512009
-0.000766398
-0.000321269
-0.00055125
-0.000175837
-0.000335022
-8.16071e-05
-0.000151172
-2.96099e-05
-1.91524e-05
-5.38937e-06
6.0514e-05
2.49519e-06
9.56177e-05
2.18193e-06
9.05583e-05
4.4877e-05
-3.11633e-05
4.6676e-05
-9.2426e-05
0.00013849
-0.000172419
0.00024691
-0.000268674
0.000373137
-0.000379532
0.000509558
-0.000501313
0.000646984
-0.000628025
0.000775346
-0.000752492
0.00088441
-0.000867869
0.000965858
-0.000968771
0.0010149
-0.00105181
0.00103064
-0.00111572
0.00101551
-0.00116123
0.000974341
-0.00119067
0.000913256
-0.00120743
0.00083858
-0.00121526
0.00075593
-0.00121763
0.000669626
-0.00121734
0.0005825
-0.00121632
0.000496054
-0.00121571
0.000410823
-0.00121604
0.000326755
-0.00121745
0.000243529
-0.0012199
0.00016077
-0.00122329
7.81312e-05
-0.00122757
-4.67337e-06
-0.00123284
-8.78228e-05
-0.00123932
-0.00017145
-0.0012474
-0.000255687
-0.00125764
-0.000340743
-0.0012708
-0.000426937
-0.00128766
-0.000514802
-0.00130864
-0.000605157
-0.00133329
-0.00069899
-0.00135948
-0.000797038
-0.00138235
-0.000898994
-0.00139357
-0.00100222
-0.00138157
-0.00110007
-0.00133323
-0.00118062
-0.00123722
-0.0012269
-0.00108864
-0.00121952
-0.000893475
-0.0011422
-0.000670672
-0.000989202
-0.000449624
-0.000772298
-0.000261709
-0.000522937
-0.000127791
-0.00028509
-4.91487e-05
-9.77947e-05
-1.12711e-05
2.26363e-05
2.16094e-06
8.21857e-05
2.88177e-06
8.98375e-05
4.77588e-05
-3.85895e-05
8.52655e-05
-0.000109888
0.000209788
-0.000199151
0.000336173
-0.000302839
0.000476825
-0.000418097
0.000624816
-0.000539969
0.000768856
-0.000661713
0.000897091
-0.000776213
0.00099891
-0.000877386
0.00106703
-0.000961065
0.00109858
-0.00102536
0.00109493
-0.00107064
0.00106079
-0.0010992
0.00100291
-0.00111466
0.000928716
-0.00112114
0.000845059
-0.0011225
0.000757283
-0.00112176
0.000668892
-0.00112095
0.000581687
-0.00112111
0.000496217
-0.00112259
0.000412303
-0.0011253
0.000329467
-0.00112898
0.000247206
-0.00113333
0.000165114
-0.0011381
8.29017e-05
-0.00114317
3.97878e-07
-0.00114853
-8.24658e-05
-0.00115426
-0.000165719
-0.00116059
-0.000249353
-0.00116796
-0.000333369
-0.00117705
-0.000417848
-0.00118879
-0.000503069
-0.00120431
-0.000589632
-0.00122474
-0.00067856
-0.00125048
-0.0007713
-0.00128008
-0.000869392
-0.00130887
-0.000973423
-0.0013278
-0.00108114
-0.00132336
-0.00118506
-0.00127965
-0.00127061
-0.00118288
-0.00131628
-0.00102759
-0.00129749
-0.000822196
-0.0011946
-0.000591076
-0.00100342
-0.000369995
-0.000744017
-0.000193736
-0.00046135
-7.99894e-05
-0.000211541
-2.19448e-05
-3.54084e-05
2.50201e-07
5.99907e-05
3.27399e-06
8.68137e-05
5.10328e-05
-4.44963e-05
0.000129762
-0.000123394
0.000288685
-0.000218975
0.000431755
-0.000326566
0.000584416
-0.00044223
0.000740479
-0.000560155
0.000886781
-0.000673393
0.00101033
-0.00077535
0.00110087
-0.000861018
0.0011527
-0.000927653
0.00116521
-0.000974965
0.00114224
-0.00100491
0.00109073
-0.00102108
0.00101908
-0.00102784
0.000935484
-0.00102942
0.000846632
-0.00102914
0.000757005
-0.00102917
0.000668927
-0.00103057
0.000583083
-0.00103356
0.000499203
-0.00103789
0.00041664
-0.00104317
0.000334745
-0.00104899
0.000253023
-0.00105503
0.000171159
-0.00106111
8.89761e-05
-0.00106711
6.40282e-06
-0.00107301
-7.65684e-05
-0.00107882
-0.000159909
-0.00108462
-0.000243552
-0.00109058
-0.000327405
-0.00109704
-0.000411392
-0.0011046
-0.000495513
-0.00111428
-0.000579953
-0.00112755
-0.000665289
-0.0011461
-0.000752752
-0.00117114
-0.000844343
-0.00120209
-0.000942473
-0.00123455
-0.00104868
-0.00125852
-0.00116109
-0.00125818
-0.00127095
-0.00121465
-0.00135981
-0.00111205
-0.00140009
-0.000945555
-0.00136109
-0.000728143
-0.00122083
-0.000491773
-0.000980388
-0.000279078
-0.000674045
-0.00012536
-0.000365259
-3.96762e-05
-0.000121092
-4.38976e-06
2.47043e-05
3.03273e-06
7.93912e-05
5.40655e-05
-4.83127e-05
0.000178074
-0.000131959
0.000372331
-0.000230711
0.000530506
-0.000338765
0.000692471
-0.000451342
0.000853056
-0.000562216
0.000997655
-0.00066468
0.00111279
-0.00075299
0.00118918
-0.000823403
0.00122311
-0.000874673
0.00121648
-0.000908041
0.00117561
-0.000926762
0.00110945
-0.000935237
0.00102755
-0.000937959
0.000938206
-0.000938628
0.000847302
-0.000939676
0.000758053
-0.000942259
0.000671509
-0.000946576
0.000587401
-0.000952297
0.000504923
-0.000958914
0.000423257
-0.000965966
0.000341797
-0.000973127
0.000260184
-0.000980208
0.00017824
-0.000987129
9.5897e-05
-0.000993867
1.31416e-05
-0.00100042
-7.00116e-05
-0.0010068
-0.000153529
-0.001013
-0.000237358
-0.00101899
-0.000321411
-0.00102481
-0.00040557
-0.00103064
-0.000489684
-0.00103696
-0.000573635
-0.00104474
-0.000657504
-0.00105565
-0.000741848
-0.00107191
-0.000828078
-0.00109563
-0.000918754
-0.001127
-0.00101731
-0.00116168
-0.00112641
-0.00118835
-0.00124427
-0.00118839
-0.00135978
-0.0011397
-0.00144878
-0.0010251
-0.00147569
-0.000842659
-0.00140327
-0.00061302
-0.00121003
-0.000377936
-0.000909129
-0.000185678
-0.000557517
-6.59168e-05
-0.000240853
-1.23342e-05
-2.88783e-05
2.04232e-06
6.50146e-05
5.61078e-05
-4.97088e-05
0.000227783
-0.000135094
0.000457716
-0.000233933
0.000629345
-0.000339367
0.000797905
-0.000446062
0.000959751
-0.000547773
0.00109937
-0.000638369
0.00120339
-0.000713151
0.00126396
-0.000769708
0.00127967
-0.000808213
0.00125499
-0.000831182
0.00119858
-0.00084272
0.00112099
-0.000847448
0.00103228
-0.000849431
0.000940189
-0.000851484
0.000849355
-0.000855019
0.000761587
-0.000860325
0.000676816
-0.000867046
0.000594122
-0.000874609
0.000512486
-0.000882503
0.000431151
-0.000890392
0.000349685
-0.000898108
0.0002679
-0.000905613
0.000185745
-0.000912934
0.000103218
-0.00092012
2.03281e-05
-0.000927216
-6.29162e-05
-0.000934236
-0.000146509
-0.000941153
-0.000230441
-0.000947893
-0.000314672
-0.000954345
-0.000399118
-0.0009604
-0.000483629
-0.000966047
-0.000567988
-0.000971574
-0.000651977
-0.000977881
-0.000735542
-0.000986786
-0.000819173
-0.00100104
-0.000904495
-0.00102356
-0.000994797
-0.00105523
-0.00109475
-0.00109139
-0.00120811
-0.0011186
-0.00133257
-0.00111458
-0.00145281
-0.00105413
-0.00153613
-0.000920644
-0.00153676
-0.00071863
-0.00141204
-0.000480267
-0.00114749
-0.000258247
-0.000779537
-0.000101487
-0.000397613
-2.37466e-05
-0.000106619
3.09518e-07
4.09585e-05
5.64173e-05
-4.85978e-05
0.000276381
-0.000132767
0.000541886
-0.000228876
0.000725454
-0.000329118
0.000898147
-0.000427888
0.00105852
-0.000519242
0.00119072
-0.000597836
0.00128198
-0.000660095
0.00132622
-0.000704872
0.00132445
-0.000733541
0.00128366
-0.000749497
0.00121453
-0.000757186
0.00112868
-0.00076094
0.00103603
-0.000764034
0.000943283
-0.000768296
0.000853616
-0.000774257
0.000767549
-0.000781632
0.000684191
-0.000789823
0.000602312
-0.000798271
0.000520934
-0.000806614
0.000439494
-0.000814693
0.000357764
-0.000822494
0.000275702
-0.000830084
0.000193335
-0.000837553
0.000110688
-0.000844987
2.77617e-05
-0.000852449
-5.54546e-05
-0.000859967
-0.000138991
-0.000867533
-0.000222875
-0.000875088
-0.000307116
-0.000882511
-0.000391696
-0.000889604
-0.000476536
-0.000896124
-0.000561468
-0.000901887
-0.000646214
-0.000907003
-0.000730426
-0.000912274
-0.000813902
-0.000919671
-0.000897098
-0.000932512
-0.000981956
-0.000954537
-0.00107272
-0.000987034
-0.00117561
-0.00102421
-0.0012954
-0.00104923
-0.00142778
-0.00103536
-0.00155
-0.000955225
-0.0016169
-0.000796169
-0.0015711
-0.000574342
-0.00136932
-0.000337233
-0.00101665
-0.000146123
-0.000588722
-3.90033e-05
-0.000213739
-2.30553e-06
4.2606e-06
5.41118e-05
-4.5099e-05
0.00032148
-0.000125322
0.000622109
-0.00021627
0.000816402
-0.000309317
0.000991194
-0.000398827
0.00114803
-0.000479381
0.00127127
-0.000546534
0.00134914
-0.000597795
0.00137748
-0.000633107
0.00135976
-0.000654715
0.00130526
-0.000666459
0.00122628
-0.000672666
0.00113488
-0.000677029
0.00104039
-0.000681914
0.000948168
-0.000688272
0.000859974
-0.000696024
0.000775301
-0.000704613
0.00069278
-0.000713443
0.000611142
-0.000722108
0.0005296
-0.000730433
0.00044782
-0.000738414
0.000365745
-0.000746137
0.000283425
-0.000753718
0.000200915
-0.000761266
0.000118235
-0.000768866
3.53618e-05
-0.000776582
-4.77386e-05
-0.000784447
-0.000131126
-0.000792473
-0.000214849
-0.000800633
-0.000298955
-0.00080885
-0.000383479
-0.000816964
-0.000468421
-0.00082472
-0.000553712
-0.000831772
-0.000639162
-0.000837776
-0.000724421
-0.000842673
-0.000809006
-0.00084721
-0.000892561
-0.000853617
-0.000975549
-0.000865877
-0.00106046
-0.000888507
-0.00115298
-0.000922652
-0.00126125
-0.000960031
-0.00139041
-0.000978758
-0.00153127
-0.000947209
-0.00164845
-0.00083842
-0.00167989
-0.00064955
-0.00155819
-0.000414655
-0.00125154
-0.000197778
-0.000805599
-5.87649e-05
-0.000352753
-5.87497e-06
-4.86294e-05
4.82368e-05
-3.94848e-05
0.000360965
-0.000113355
0.000695979
-0.000197156
0.000900203
-0.000281556
0.00107559
-0.000361067
0.00122754
-0.000430935
0.00134114
-0.000487626
0.00140583
-0.000529613
0.00141946
-0.000557665
0.00138781
-0.000574538
0.00132214
-0.000584111
0.00123585
-0.000590255
0.00114103
-0.000595874
0.00104601
-0.000602487
0.000954781
-0.000610397
0.000867884
-0.000619196
0.000784101
-0.00062829
0.000701873
-0.000637217
0.00062007
-0.00064576
0.000538142
-0.0006539
0.000455959
-0.000661731
0.000373576
-0.000669383
0.000291077
-0.00067698
0.000208513
-0.000684622
0.000125877
-0.000692381
4.31207e-05
-0.00070031
-3.98092e-05
-0.00070844
-0.000122995
-0.000716789
-0.000206501
-0.000725352
-0.000290392
-0.000734094
-0.000374737
-0.000742927
-0.000459589
-0.000751674
-0.000544965
-0.000760031
-0.000630805
-0.000767558
-0.000716894
-0.000773776
-0.000802788
-0.000778499
-0.000887838
-0.000782512
-0.000971536
-0.000788465
-0.00105451
-0.000801197
-0.00114025
-0.000825863
-0.00123658
-0.000862397
-0.00135387
-0.000897898
-0.00149577
-0.000903623
-0.00164272
-0.000844178
-0.00173933
-0.000698631
-0.00170374
-0.000482281
-0.00146789
-0.000252366
-0.00103551
-8.31785e-05
-0.00052194
-1.03789e-05
-0.000121429
3.78579e-05
-3.2127e-05
0.000393092
-9.76162e-05
0.000761468
-0.000172719
0.000975305
-0.000247503
0.00115038
-0.000316735
0.00129677
-0.000376387
0.0014008
-0.000423779
0.00145322
-0.000458159
0.00145384
-0.000480838
0.00141049
-0.000494731
0.00133603
-0.000503437
0.00124456
-0.000510187
0.00114778
-0.000517101
0.00105293
-0.000525022
0.000962703
-0.000533855
0.000876717
-0.000543089
0.000793334
-0.000552223
0.000711007
-0.000560972
0.000628819
-0.000569276
0.000546447
-0.000577219
0.000463903
-0.000584939
0.000381296
-0.000592572
0.00029871
-0.000600228
0.000216168
-0.00060799
0.000133639
-0.000615917
5.10481e-05
-0.000624054
-3.16727e-05
-0.000632423
-0.000114626
-0.00064104
-0.000197884
-0.00064991
-0.000281523
-0.000659018
-0.000365628
-0.000668324
-0.000450282
-0.000677731
-0.000535559
-0.000687043
-0.000621493
-0.000695913
-0.000708024
-0.000703812
-0.000794889
-0.000710139
-0.000881511
-0.000714639
-0.000967036
-0.0007183
-0.00105085
-0.00072449
-0.00113406
-0.000739109
-0.00122197
-0.000767429
-0.00132555
-0.000806204
-0.00145699
-0.000835048
-0.00161388
-0.000817459
-0.00175692
-0.000718696
-0.0018025
-0.000533497
-0.00165309
-0.0003046
-0.00126441
-0.000111233
-0.000715308
-1.58204e-05
-0.000216841
2.20374e-05
-2.34494e-05
0.000416541
-7.89097e-05
0.000816928
-0.000144158
0.00104055
-0.000208747
0.00121497
-0.000267736
0.00135576
-0.000317824
0.00145088
-0.000357076
0.00149247
-0.000385309
0.00148208
-0.000404087
0.00142927
-0.000416196
0.00134814
-0.000424744
0.00125311
-0.000432264
0.0011553
-0.000440195
0.00106086
-0.000448913
0.000971421
-0.000458132
0.000885935
-0.000467377
0.000802578
-0.000476295
0.000719925
-0.000484757
0.000637281
-0.000492811
0.000554501
-0.000500591
0.000471682
-0.000508241
0.000388946
-0.000515884
0.000306353
-0.000523612
0.000223897
-0.000531498
0.000141525
-0.000539592
5.9142e-05
-0.000547934
-2.33304e-05
-0.000556542
-0.000106019
-0.000565426
-0.000189
-0.000574588
-0.00027236
-0.000584022
-0.000356195
-0.000593704
-0.000440601
-0.000603584
-0.000525678
-0.000613556
-0.000611522
-0.000623399
-0.000698181
-0.000632709
-0.000785578
-0.000640862
-0.000873358
-0.000647153
-0.000960745
-0.000651366
-0.00104663
-0.000654966
-0.00113046
-0.000662438
-0.00121449
-0.000680813
-0.00130718
-0.000714153
-0.00142365
-0.000752734
-0.0015753
-0.000765692
-0.00174396
-0.000711004
-0.00185719
-0.000564457
-0.00179964
-0.000349438
-0.00147943
-0.000140931
-0.000923815
-2.20975e-05
-0.000335674
-6.00832e-08
-1.3893e-05
0.000430434
-5.80341e-05
0.00086107
-0.000112598
0.00109512
-0.000166703
0.00126907
-0.000215676
0.00140473
-0.000256896
0.0014921
-0.000289047
0.00152462
-0.000312303
0.00150533
-0.000328238
0.0014452
-0.00033929
0.00135919
-0.000347966
0.00126178
-0.000356133
0.00116346
-0.000364697
0.00106942
-0.000373747
0.000980471
-0.000382954
0.000895143
-0.000391949
0.000811573
-0.000400525
0.000728502
-0.000408668
0.000645424
-0.000416484
0.000562317
-0.000424119
0.000479317
-0.000431707
0.000396535
-0.000439354
0.000314
-0.000447138
0.000231681
-0.000455125
0.000149512
-0.000463368
6.73849e-05
-0.000471908
-1.47907e-05
-0.000480758
-9.71684e-05
-0.000489925
-0.000179833
-0.000499406
-0.000262879
-0.00050919
-0.000346411
-0.000519256
-0.000430534
-0.000529573
-0.000515361
-0.000540081
-0.000601014
-0.000550653
-0.000687609
-0.000561029
-0.000775202
-0.000570728
-0.000863658
-0.000579017
-0.000952456
-0.000585125
-0.00104053
-0.000589066
-0.00112652
-0.000593213
-0.00121035
-0.000603648
-0.00129674
-0.000628037
-0.00139926
-0.000666298
-0.00153704
-0.000697624
-0.00171264
-0.000679905
-0.00187491
-0.000574329
-0.00190521
-0.000383166
-0.00167059
-0.000169694
-0.00113729
-2.94211e-05
-0.000475947
-2.94812e-05
-3.87751e-06
0.000434312
-3.57538e-05
0.000892946
-7.90491e-05
0.00113841
-0.000122571
0.00131259
-0.000161841
0.00144401
-0.000194838
0.0015251
-0.000220735
0.00155052
-0.000239883
0.00152448
-0.000253668
0.00145899
-0.000264042
0.00136957
-0.000272875
0.00127062
-0.000281441
0.00117203
-0.000290257
0.00107824
-0.00029927
0.000989484
-0.000308194
0.000904067
-0.000316785
0.000820164
-0.000324956
0.000736673
-0.000332764
0.000653232
-0.000340338
0.000569892
-0.000347818
0.000486797
-0.000355322
0.000404038
-0.00036294
0.000321617
-0.000370742
0.000239484
-0.000378794
0.000157564
-0.000387156
7.57476e-05
-0.000395876
-6.07083e-06
-0.000404969
-8.80757e-05
-0.000414438
-0.000170364
-0.000424271
-0.000253046
-0.000434452
-0.000336231
-0.000444956
-0.00042003
-0.000455756
-0.000504561
-0.00046681
-0.00058996
-0.00047804
-0.000676379
-0.000489287
-0.000763955
-0.000500227
-0.000852719
-0.000510273
-0.000942409
-0.000518577
-0.00103222
-0.000524401
-0.00112069
-0.000528336
-0.00120641
-0.000534296
-0.00129078
-0.000550218
-0.00138334
-0.000582457
-0.0015048
-0.000621522
-0.00167357
-0.000631434
-0.00186499
-0.000564838
-0.00197181
-0.000403898
-0.00183153
-0.00019508
-0.00134611
-3.78544e-05
-0.000633173
-6.73356e-05
6.05964e-06
0.000428252
-1.27377e-05
0.000911743
-4.44014e-05
0.00117008
-7.73444e-05
0.00134554
-0.000107231
0.00147389
-0.000132537
0.00155041
-0.00015281
0.00157079
-0.000168432
0.0015401
-0.000180471
0.00147103
-0.00019031
0.0013794
-0.00019919
0.0012795
-0.000207882
0.00118072
-0.000216632
0.00108699
-0.000225336
0.000998189
-0.000233796
0.000912526
-0.000241884
0.000828252
-0.000249605
0.000744393
-0.000257052
0.00066068
-0.000264359
0.000577198
-0.000271648
0.000494087
-0.000279024
0.000411413
-0.000286566
0.00032916
-0.000294342
0.00024726
-0.000302416
0.000165638
-0.000310863
8.41944e-05
-0.000319738
2.80413e-06
-0.000329067
-7.8747e-05
-0.000338849
-0.000160581
-0.000349065
-0.00024283
-0.00035969
-0.000325605
-0.000370696
-0.000409023
-0.000382054
-0.000493204
-0.000393725
-0.000578288
-0.000405656
-0.000664448
-0.000417742
-0.00075187
-0.000429767
-0.000840694
-0.000441311
-0.000930865
-0.000451659
-0.00102187
-0.000459874
-0.00111248
-0.000465477
-0.00120081
-0.000470229
-0.00128603
-0.000480325
-0.00137325
-0.000504833
-0.00148029
-0.000543996
-0.00163441
-0.000571981
-0.00183701
-0.000539405
-0.00200439
-0.00041153
-0.00195941
-0.000215325
-0.00154231
-4.69732e-05
-0.000801525
-0.000114309
1.531e-05