/*--------------------------------*- C++ -*----------------------------------*\
  =========                 |
  \\      /  F ield         | OpenFOAM: The Open Source CFD Toolbox
   \\    /   O peration     | Website:  https://openfoam.org
    \\  /    A nd           | Version:  7
     \\/     M anipulation  |
\*---------------------------------------------------------------------------*/
FoamFile
{
    version     2.0;
    format      ascii;
    class       volScalarField;
    location    "850";
    object      p;
}
// * * * * * * * * * * * * * * * * * * * * * * * * * * * * * * * * * * * * * //

dimensions      [0 2 -2 0 0 0 0];

internalField   nonuniform List<scalar> 
2500
(
9.33072e-07
7.27244e-05
-7.05519e-06
-0.000305882
-0.000780331
-0.00136795
-0.00202856
-0.00275763
-0.00358089
-0.004539
-0.00567203
-0.00700987
-0.00856943
-0.0103504
-0.0123294
-0.0144522
-0.0166266
-0.018721
-0.0205703
-0.0219924
-0.0228123
-0.0228907
-0.0221521
-0.0206128
-0.0183986
-0.0157358
-0.0129457
-0.0104459
-0.00869826
-0.00814078
-0.00910673
-0.0117334
-0.0159087
-0.0213372
-0.0275597
-0.0340147
-0.0401732
-0.0456341
-0.0501661
-0.0536941
-0.0562678
-0.058022
-0.0591313
-0.0597715
-0.0600947
-0.0602169
-0.0602162
-0.0601349
-0.0599956
-0.0598565
-6.73806e-05
5.56865e-06
-7.82075e-05
-0.000374691
-0.000827133
-0.00137137
-0.00197227
-0.00263129
-0.00337704
-0.00424983
-0.0052885
-0.006523
-0.00797401
-0.0096493
-0.0115372
-0.0136009
-0.0157695
-0.0179313
-0.0199336
-0.0215924
-0.0227152
-0.0231322
-0.0227294
-0.0214824
-0.0194861
-0.0169574
-0.0142336
-0.0117501
-0.00998753
-0.00940327
-0.0103462
-0.0129758
-0.0172085
-0.0226952
-0.0289335
-0.0353755
-0.0414666
-0.0467659
-0.0510338
-0.0542429
-0.056511
-0.0580194
-0.0589618
-0.0595108
-0.0598026
-0.0599345
-0.0599684
-0.0599339
-0.0598324
-0.0597007
-1.71622e-05
5.15332e-05
-5.54043e-05
-0.000377916
-0.000830374
-0.00133702
-0.00186767
-0.00243516
-0.00308056
-0.00385142
-0.00479186
-0.00594226
-0.00734065
-0.0090215
-0.0110048
-0.0132794
-0.0157849
-0.0183996
-0.020941
-0.0231824
-0.0248847
-0.0258337
-0.0258778
-0.0249657
-0.0231897
-0.0207772
-0.018065
-0.0154868
-0.0135355
-0.0126916
-0.0133373
-0.0156713
-0.019649
-0.0249691
-0.0311228
-0.037489
-0.0434895
-0.048682
-0.0527857
-0.0557347
-0.0576589
-0.0588038
-0.0594229
-0.0597211
-0.0598427
-0.0598777
-0.0598726
-0.0598371
-0.0597412
-0.0595969
0.000230207
0.000268226
0.000103728
-0.000277629
-0.000753468
-0.00123483
-0.00170078
-0.00218345
-0.00274391
-0.00345323
-0.00438483
-0.00561821
-0.00723824
-0.00932195
-0.0119122
-0.0149888
-0.0184485
-0.0221031
-0.0256963
-0.0289374
-0.0315421
-0.0332707
-0.0339582
-0.033541
-0.032091
-0.0298109
-0.0270126
-0.0241175
-0.0216205
-0.0200285
-0.0197794
-0.0211531
-0.0241991
-0.0287048
-0.0342199
-0.0401415
-0.0458472
-0.0508175
-0.0547568
-0.057575
-0.0593231
-0.0602126
-0.0605247
-0.0605194
-0.060381
-0.0602196
-0.0600854
-0.0599795
-0.0598495
-0.0596847
0.000709681
0.000679492
0.000420233
-4.19934e-05
-0.000553229
-0.00102716
-0.00145829
-0.00190665
-0.00247295
-0.00327919
-0.00446246
-0.00617063
-0.008543
-0.0116751
-0.0155811
-0.0201702
-0.0252459
-0.030527
-0.0356829
-0.0403727
-0.0442819
-0.0471529
-0.0488072
-0.0491608
-0.0482432
-0.0461995
-0.043295
-0.0399149
-0.0365312
-0.0336592
-0.0317916
-0.0313166
-0.0324364
-0.0351082
-0.0390322
-0.0437035
-0.0485217
-0.0529259
-0.056516
-0.0591041
-0.0607238
-0.0615312
-0.0617174
-0.0615326
-0.061196
-0.0608509
-0.0605711
-0.0603695
-0.0601932
-0.0600163
0.00146503
0.00133091
0.000951454
0.000399797
-0.000166396
-0.000672967
-0.00114463
-0.00169427
-0.00249122
-0.00374167
-0.00567134
-0.00849429
-0.0123662
-0.0173378
-0.0233291
-0.030132
-0.0374369
-0.044872
-0.0520441
-0.0585735
-0.0641228
-0.068421
-0.0712811
-0.0726042
-0.0723881
-0.0707169
-0.0677888
-0.0639246
-0.0595316
-0.0550858
-0.05109
-0.0480152
-0.0462279
-0.0459148
-0.0470303
-0.0492908
-0.0522338
-0.0553299
-0.0581115
-0.0602687
-0.0616807
-0.062396
-0.0625784
-0.0623908
-0.0620046
-0.061579
-0.0612134
-0.060945
-0.0607397
-0.0605683
0.00253471
0.0022718
0.00176295
0.0011114
0.000454412
-0.000164947
-0.000834881
-0.00175113
-0.00318321
-0.00544129
-0.0088273
-0.0135704
-0.0197672
-0.0273507
-0.036096
-0.0456545
-0.0556019
-0.0654848
-0.0748615
-0.0833321
-0.0905615
-0.0962943
-0.100358
-0.102662
-0.103201
-0.102026
-0.0992636
-0.0951468
-0.0899786
-0.0841324
-0.0780395
-0.0721661
-0.0669709
-0.0628433
-0.060035
-0.0586036
-0.0583911
-0.0590589
-0.0601794
-0.0613505
-0.062284
-0.0628404
-0.0630184
-0.0629057
-0.0626063
-0.0622316
-0.0618811
-0.0616124
-0.0614167
-0.0612716
0.00392505
0.00352601
0.00288694
0.0021132
0.00129785
0.000413055
-0.000726556
-0.00243023
-0.00508307
-0.00907909
-0.0147337
-0.0222027
-0.031439
-0.0421978
-0.0540796
-0.066591
-0.079205
-0.0914119
-0.102757
-0.112863
-0.121443
-0.128298
-0.133304
-0.136398
-0.1376
-0.136968
-0.134576
-0.130568
-0.125128
-0.118487
-0.110932
-0.102813
-0.0945445
-0.0865808
-0.0793832
-0.0733528
-0.0687539
-0.0656499
-0.0638838
-0.0631234
-0.0629645
-0.063046
-0.0631232
-0.0630892
-0.0629402
-0.0627174
-0.0624838
-0.062293
-0.0621529
-0.0620523
0.00558121
0.00505299
0.00427871
0.00334026
0.00224195
0.000845443
-0.00116152
-0.00421494
-0.00879211
-0.0153011
-0.0239713
-0.0347877
-0.0474885
-0.0616158
-0.0765918
-0.0917999
-0.106652
-0.120637
-0.133347
-0.144482
-0.153847
-0.161333
-0.16688
-0.170469
-0.172146
-0.172008
-0.170099
-0.166496
-0.161287
-0.154571
-0.146475
-0.137171
-0.126903
-0.116019
-0.104983
-0.0943671
-0.0847897
-0.0768098
-0.0707897
-0.0667803
-0.0645033
-0.0634609
-0.0631195
-0.0630645
-0.0630653
-0.0630459
-0.0630014
-0.0629546
-0.0629097
-0.0628647
0.00735269
0.00670948
0.00578882
0.00460369
0.00302518
0.000774307
-0.00260103
-0.0076416
-0.0148467
-0.0245331
-0.0367364
-0.0511904
-0.0673789
-0.0846309
-0.102226
-0.119484
-0.135831
-0.150829
-0.164177
-0.175693
-0.185293
-0.192955
-0.198686
-0.202505
-0.204474
-0.204717
-0.203272
-0.20018
-0.195474
-0.189173
-0.181287
-0.171829
-0.160849
-0.148476
-0.134987
-0.120857
-0.106795
-0.0936942
-0.0824764
-0.0738486
-0.0680608
-0.0648129
-0.0634038
-0.0630423
-0.0631175
-0.0632991
-0.0634793
-0.0636174
-0.0636925
-0.0637071
0.0089814
0.00824218
0.00713965
0.00557483
0.00325047
-0.000266496
-0.00555136
-0.0131861
-0.023588
-0.0368692
-0.0527837
-0.0707705
-0.0900641
-0.109829
-0.129279
-0.147765
-0.164811
-0.180115
-0.193514
-0.204952
-0.214435
-0.222011
-0.227727
-0.231622
-0.233761
-0.234271
-0.233185
-0.230534
-0.226334
-0.22058
-0.213232
-0.204221
-0.193463
-0.18089
-0.166518
-0.150544
-0.133463
-0.116141
-0.0997892
-0.0857426
-0.0750735
-0.068176
-0.0646064
-0.0633376
-0.0632649
-0.0636081
-0.0640068
-0.0643425
-0.0645476
-0.0646224
0.0101139
0.00928347
0.00793193
0.00581014
0.00243335
-0.00277473
-0.0104618
-0.0211562
-0.0350806
-0.0520495
-0.0714875
-0.0925457
-0.114266
-0.135739
-0.15622
-0.17518
-0.192303
-0.207447
-0.220582
-0.231744
-0.241001
-0.248426
-0.254084
-0.258015
-0.26027
-0.260963
-0.260116
-0.257763
-0.253924
-0.248596
-0.241747
-0.233298
-0.223124
-0.211057
-0.196929
-0.18065
-0.162343
-0.14252
-0.122233
-0.103059
-0.0867951
-0.0748556
-0.0676581
-0.0644397
-0.0637232
-0.0640893
-0.0646847
-0.0652126
-0.0655497
-0.0656879
0.0103212
0.00938551
0.00769382
0.00481626
8.50274e-05
-0.00718245
-0.0176287
-0.031624
-0.0491013
-0.069524
-0.0919909
-0.115424
-0.13877
-0.161158
-0.181978
-0.200882
-0.217731
-0.232522
-0.245321
-0.256215
-0.265291
-0.272622
-0.278265
-0.282252
-0.284613
-0.285442
-0.28475
-0.282569
-0.278925
-0.273832
-0.26728
-0.259222
-0.249558
-0.238125
-0.224696
-0.209016
-0.190892
-0.170378
-0.148025
-0.125116
-0.103667
-0.0859685
-0.0736991
-0.0670844
-0.0648074
-0.0648519
-0.0655963
-0.0663084
-0.0667858
-0.0669992
0.00915899
0.00809255
0.00595901
0.00213852
-0.00419326
-0.0137679
-0.0271347
-0.0444142
-0.0651902
-0.0885707
-0.113382
-0.138412
-0.162628
-0.185294
-0.205992
-0.224565
-0.241026
-0.255467
-0.268
-0.278727
-0.287722
-0.295045
-0.300733
-0.304805
-0.307275
-0.308219
-0.307635
-0.305554
-0.302001
-0.296999
-0.290557
-0.282664
-0.273271
-0.262272
-0.249482
-0.234628
-0.217376
-0.197439
-0.17481
-0.150117
-0.124963
-0.101906
-0.0837427
-0.0722223
-0.0670363
-0.0660616
-0.0667925
-0.0676968
-0.0683389
-0.0686527
0.00625088
0.0050213
0.00235373
-0.0025513
-0.0106315
-0.0226009
-0.0388346
-0.0591411
-0.0827402
-0.108425
-0.134838
-0.160745
-0.185229
-0.207747
-0.228087
-0.246253
-0.262359
-0.276542
-0.288923
-0.299586
-0.308585
-0.315959
-0.321728
-0.325899
-0.328474
-0.329517
-0.329025
-0.327018
-0.323517
-0.318544
-0.312116
-0.304243
-0.294916
-0.284094
-0.271673
-0.257457
-0.241133
-0.222288
-0.20054
-0.175842
-0.148982
-0.122034
-0.0982235
-0.080779
-0.0711497
-0.068029
-0.0683456
-0.069439
-0.0702818
-0.0707384
0.0013581
-6.52364e-05
-0.00333044
-0.00939147
-0.0192473
-0.0335312
-0.0523844
-0.0752781
-0.101094
-0.128385
-0.155711
-0.181914
-0.206254
-0.228399
-0.24831
-0.266105
-0.281946
-0.295975
-0.308294
-0.318959
-0.328004
-0.335447
-0.3413
-0.345561
-0.348228
-0.349358
-0.348949
-0.347012
-0.343563
-0.338618
-0.332191
-0.324296
-0.314944
-0.304134
-0.291836
-0.277955
-0.262287
-0.244474
-0.224014
-0.200424
-0.173667
-0.14484
-0.116711
-0.0932913
-0.0779752
-0.0712788
-0.0704207
-0.0716006
-0.0726913
-0.073347
-0.00557199
-0.00721014
-0.011096
-0.0183049
-0.0298445
-0.0462169
-0.0672989
-0.0922348
-0.119625
-0.147872
-0.175546
-0.201631
-0.225591
-0.247279
-0.266785
-0.284286
-0.29995
-0.313899
-0.326203
-0.336895
-0.345987
-0.353488
-0.359406
-0.363738
-0.366477
-0.367678
-0.367343
-0.365477
-0.362091
-0.357194
-0.350795
-0.342903
-0.33353
-0.322689
-0.310389
-0.296617
-0.281289
-0.264185
-0.244884
-0.222774
-0.197273
-0.168452
-0.137977
-0.109616
-0.0881463
-0.0764865
-0.073336
-0.0742837
-0.0756815
-0.0765848
-0.0143914
-0.0162513
-0.0207376
-0.0290128
-0.042046
-0.0601783
-0.0830191
-0.109425
-0.137788
-0.166446
-0.194051
-0.219764
-0.243237
-0.264471
-0.28363
-0.300909
-0.316457
-0.330362
-0.342664
-0.353375
-0.362496
-0.370032
-0.375991
-0.380371
-0.383164
-0.38442
-0.38415
-0.382351
-0.379032
-0.3742
-0.367859
-0.360012
-0.350664
-0.339826
-0.327518
-0.313763
-0.298563
-0.281841
-0.263348
-0.242568
-0.218739
-0.19121
-0.160377
-0.12889
-0.101821
-0.0842957
-0.077551
-0.0776492
-0.0793758
-0.0805639
-0.0247722
-0.0268449
-0.0318741
-0.0410779
-0.0553501
-0.0748607
-0.0989741
-0.126314
-0.15514
-0.183796
-0.211059
-0.236266
-0.25923
-0.28005
-0.298924
-0.316034
-0.331495
-0.345364
-0.357654
-0.368365
-0.377492
-0.385041
-0.391019
-0.395428
-0.39826
-0.399557
-0.399341
-0.397602
-0.394349
-0.389588
-0.383322
-0.37555
-0.366272
-0.355493
-0.343226
-0.329499
-0.314354
-0.29781
-0.279786
-0.25997
-0.237696
-0.212018
-0.182329
-0.149763
-0.118551
-0.0950832
-0.0835715
-0.0819273
-0.0838798
-0.0853971
-0.0362527
-0.0385145
-0.0440021
-0.0539639
-0.0691922
-0.0896942
-0.114627
-0.142444
-0.171339
-0.199709
-0.226475
-0.25113
-0.273608
-0.294064
-0.312701
-0.329671
-0.345056
-0.35888
-0.371142
-0.381832
-0.390948
-0.398491
-0.404474
-0.4089
-0.411761
-0.413089
-0.412916
-0.411228
-0.408035
-0.403342
-0.397153
-0.389468
-0.380287
-0.369609
-0.357439
-0.343797
-0.328726
-0.31229
-0.294521
-0.275313
-0.254234
-0.230394
-0.202659
-0.170777
-0.137371
-0.108793
-0.091825
-0.0874109
-0.0892841
-0.0912037
-0.0482973
-0.0507119
-0.0565585
-0.0670971
-0.0830017
-0.104139
-0.129504
-0.15744
-0.186125
-0.21404
-0.240241
-0.264352
-0.286388
-0.306529
-0.324962
-0.341807
-0.357112
-0.37088
-0.383098
-0.393755
-0.402846
-0.410375
-0.416355
-0.42079
-0.423671
-0.425021
-0.424885
-0.42324
-0.420097
-0.415465
-0.409347
-0.401749
-0.392671
-0.382113
-0.370077
-0.356572
-0.341632
-0.325321
-0.307728
-0.28889
-0.268629
-0.246308
-0.220721
-0.19069
-0.157038
-0.124897
-0.102509
-0.0943798
-0.095681
-0.0980957
-0.060356
-0.0628764
-0.0689781
-0.0799191
-0.0962465
-0.117715
-0.143208
-0.171005
-0.199306
-0.226687
-0.252318
-0.275924
-0.297568
-0.317436
-0.335688
-0.352414
-0.367634
-0.381336
-0.393502
-0.404118
-0.413179
-0.420691
-0.426663
-0.431103
-0.433999
-0.435365
-0.435258
-0.433647
-0.430547
-0.425965
-0.41991
-0.412389
-0.403408
-0.392971
-0.38108
-0.367744
-0.352982
-0.336848
-0.319436
-0.300863
-0.281144
-0.259952
-0.236305
-0.208654
-0.176315
-0.142495
-0.115476
-0.103025
-0.103179
-0.10613
-0.0719145
-0.0744897
-0.0807414
-0.0919277
-0.108462
-0.130022
-0.155417
-0.182909
-0.21074
-0.23757
-0.262668
-0.285824
-0.307128
-0.326757
-0.344847
-0.361458
-0.376591
-0.390225
-0.402336
-0.41291
-0.421943
-0.429437
-0.435401
-0.439843
-0.442752
-0.444127
-0.444043
-0.442459
-0.439392
-0.434851
-0.428846
-0.42139
-0.412493
-0.402164
-0.390414
-0.37725
-0.362691
-0.346775
-0.329586
-0.311261
-0.291936
-0.271545
-0.249465
-0.224218
-0.194185
-0.160499
-0.130212
-0.113361
-0.111834
-0.115246
-0.0825543
-0.0850902
-0.0914083
-0.102702
-0.119268
-0.140736
-0.165884
-0.19298
-0.220316
-0.246627
-0.271252
-0.294021
-0.315036
-0.334459
-0.352403
-0.368906
-0.383956
-0.397525
-0.409585
-0.420124
-0.429133
-0.436614
-0.442571
-0.447015
-0.449934
-0.451314
-0.451248
-0.449685
-0.44664
-0.442127
-0.43616
-0.428752
-0.41992
-0.409682
-0.398053
-0.385049
-0.37069
-0.35501
-0.338079
-0.320027
-0.30104
-0.281237
-0.260348
-0.237235
-0.209931
-0.177821
-0.145907
-0.125142
-0.121548
-0.125204
-0.0919582
-0.0943011
-0.100619
-0.111912
-0.128372
-0.149617
-0.174424
-0.201089
-0.227952
-0.253805
-0.278029
-0.300479
-0.321255
-0.340503
-0.358319
-0.374726
-0.389704
-0.403217
-0.415238
-0.42575
-0.434745
-0.442219
-0.448176
-0.452622
-0.455549
-0.456937
-0.456881
-0.455331
-0.452299
-0.447802
-0.441854
-0.434475
-0.425687
-0.415513
-0.403979
-0.391109
-0.37693
-0.361477
-0.344813
-0.327057
-0.308403
-0.289076
-0.269083
-0.247716
-0.223128
-0.193527
-0.161592
-0.137842
-0.131979
-0.135581
-0.0998778
-0.101892
-0.108102
-0.119318
-0.135569
-0.156496
-0.180911
-0.207148
-0.233588
-0.259058
-0.282963
-0.305161
-0.325745
-0.344852
-0.362562
-0.378891
-0.393811
-0.407284
-0.419281
-0.429782
-0.438775
-0.446253
-0.452217
-0.45667
-0.459606
-0.461005
-0.460955
-0.459412
-0.456382
-0.451886
-0.44594
-0.438567
-0.429794
-0.419654
-0.40818
-0.395406
-0.381369
-0.366113
-0.3497
-0.33224
-0.313923
-0.295017
-0.27572
-0.255724
-0.23357
-0.206913
-0.176287
-0.150713
-0.142584
-0.145838
-0.106147
-0.107745
-0.113704
-0.124768
-0.140741
-0.161291
-0.185288
-0.211115
-0.23719
-0.262357
-0.28602
-0.308032
-0.328472
-0.347469
-0.365099
-0.38137
-0.396253
-0.409708
-0.421701
-0.432208
-0.441216
-0.448713
-0.454695
-0.459162
-0.462111
-0.463521
-0.463473
-0.461935
-0.458898
-0.454388
-0.448425
-0.441033
-0.432246
-0.422103
-0.410646
-0.397922
-0.383979
-0.36887
-0.352664
-0.335473
-0.317479
-0.298963
-0.280234
-0.261299
-0.241185
-0.217507
-0.18912
-0.162907
-0.152727
-0.155406
-0.110699
-0.111823
-0.117383
-0.1282
-0.143836
-0.163956
-0.18751
-0.212945
-0.238712
-0.263658
-0.287166
-0.309066
-0.329421
-0.348351
-0.365929
-0.382167
-0.397038
-0.410497
-0.422508
-0.433042
-0.442082
-0.449611
-0.455621
-0.460105
-0.463062
-0.464477
-0.464425
-0.462891
-0.459838
-0.4553
-0.449301
-0.441866
-0.433033
-0.422849
-0.411367
-0.398643
-0.384736
-0.36971
-0.353649
-0.336669
-0.318955
-0.300792
-0.282544
-0.264436
-0.245955
-0.225026
-0.199404
-0.173608
-0.161778
-0.163743
-0.113561
-0.11418
-0.119205
-0.129664
-0.144897
-0.164531
-0.187605
-0.212643
-0.238132
-0.262911
-0.286331
-0.308183
-0.328507
-0.347413
-0.364978
-0.381219
-0.396109
-0.409606
-0.421669
-0.432265
-0.441369
-0.448962
-0.45503
-0.459565
-0.462558
-0.463995
-0.463919
-0.462355
-0.459252
-0.454649
-0.448571
-0.441053
-0.432139
-0.421876
-0.410322
-0.397544
-0.383609
-0.368598
-0.352605
-0.33576
-0.318255
-0.300382
-0.282537
-0.26508
-0.247874
-0.229323
-0.206645
-0.182106
-0.169165
-0.170369
-0.114841
-0.114958
-0.119327
-0.129287
-0.144031
-0.163111
-0.185649
-0.21026
-0.235475
-0.260121
-0.283504
-0.305365
-0.32571
-0.344637
-0.362225
-0.3785
-0.393441
-0.407006
-0.419151
-0.429837
-0.439034
-0.446716
-0.452864
-0.457465
-0.460509
-0.461985
-0.461912
-0.460327
-0.457174
-0.452495
-0.446321
-0.438684
-0.429631
-0.419221
-0.40752
-0.394608
-0.380569
-0.365492
-0.349482
-0.33268
-0.315294
-0.297626
-0.280098
-0.263149
-0.246921
-0.230329
-0.210523
-0.187831
-0.174392
-0.174865
-0.114717
-0.114367
-0.117983
-0.127272
-0.141405
-0.159835
-0.181751
-0.205871
-0.230782
-0.255301
-0.278678
-0.300594
-0.32101
-0.340004
-0.357658
-0.374004
-0.389032
-0.4027
-0.414962
-0.425774
-0.435096
-0.442898
-0.449155
-0.453845
-0.456957
-0.458479
-0.458412
-0.456807
-0.453596
-0.448824
-0.442528
-0.434744
-0.42552
-0.414919
-0.403017
-0.389898
-0.375656
-0.360397
-0.344249
-0.327376
-0.309999
-0.292432
-0.275118
-0.258549
-0.243059
-0.228019
-0.210846
-0.190349
-0.177032
-0.176866
-0.113416
-0.112671
-0.115472
-0.123895
-0.137248
-0.154894
-0.176063
-0.199581
-0.224108
-0.248462
-0.271836
-0.293837
-0.314367
-0.333478
-0.351244
-0.367707
-0.382864
-0.396677
-0.409099
-0.420077
-0.429566
-0.437525
-0.443923
-0.448732
-0.451933
-0.453512
-0.453459
-0.451833
-0.448559
-0.443679
-0.437237
-0.42927
-0.41983
-0.408984
-0.396814
-0.383412
-0.368883
-0.353344
-0.33694
-0.319851
-0.30233
-0.284728
-0.267508
-0.251191
-0.23624
-0.222384
-0.207512
-0.189353
-0.176716
-0.176048
-0.111202
-0.11016
-0.112133
-0.119492
-0.131849
-0.14853
-0.168781
-0.191532
-0.215537
-0.239633
-0.262964
-0.285053
-0.305733
-0.325009
-0.342941
-0.359573
-0.374909
-0.388917
-0.401546
-0.412739
-0.42244
-0.4306
-0.437178
-0.442139
-0.445457
-0.447113
-0.447092
-0.445444
-0.442105
-0.437107
-0.430496
-0.422313
-0.412612
-0.401464
-0.388956
-0.375187
-0.360271
-0.344339
-0.32755
-0.310112
-0.292303
-0.274505
-0.257223
-0.241014
-0.226422
-0.213424
-0.200487
-0.184637
-0.173123
-0.172113
-0.108354
-0.107129
-0.108309
-0.114439
-0.12555
-0.141033
-0.160143
-0.181905
-0.205184
-0.228865
-0.252058
-0.274204
-0.295049
-0.314536
-0.332695
-0.34956
-0.365138
-0.3794
-0.392294
-0.403757
-0.413724
-0.422135
-0.42894
-0.434093
-0.437563
-0.439323
-0.439355
-0.437691
-0.434291
-0.429166
-0.422366
-0.413937
-0.403932
-0.392425
-0.379507
-0.365283
-0.349874
-0.333425
-0.316115
-0.298174
-0.279916
-0.261763
-0.244263
-0.228011
-0.2136
-0.201161
-0.189777
-0.17608
-0.165965
-0.16478
-0.105139
-0.103845
-0.104322
-0.109119
-0.11873
-0.132735
-0.150426
-0.170918
-0.193201
-0.216238
-0.239133
-0.261255
-0.282253
-0.301989
-0.320439
-0.337614
-0.353512
-0.368104
-0.381335
-0.393136
-0.403432
-0.412155
-0.41924
-0.424635
-0.428297
-0.430195
-0.430303
-0.428642
-0.425186
-0.419932
-0.412928
-0.404223
-0.393873
-0.381951
-0.368549
-0.353779
-0.337768
-0.320675
-0.302697
-0.284094
-0.265218
-0.246537
-0.228651
-0.212205
-0.197832
-0.185668
-0.175441
-0.163642
-0.154996
-0.153775
-0.101793
-0.100526
-0.100433
-0.103885
-0.111785
-0.124002
-0.139942
-0.158824
-0.179772
-0.201859
-0.224222
-0.246177
-0.267276
-0.28728
-0.306088
-0.323663
-0.33998
-0.354999
-0.368658
-0.380881
-0.391586
-0.40069
-0.408122
-0.413816
-0.417721
-0.419796
-0.420014
-0.418377
-0.414878
-0.409496
-0.402277
-0.393273
-0.382538
-0.370145
-0.356187
-0.340779
-0.324056
-0.306188
-0.287396
-0.26797
-0.248305
-0.228922
-0.210477
-0.193669
-0.179188
-0.167092
-0.157608
-0.147363
-0.140027
-0.138843
-0.0985006
-0.0973299
-0.0968287
-0.099029
-0.10509
-0.11522
-0.129035
-0.145907
-0.165113
-0.185872
-0.207389
-0.228964
-0.250057
-0.270318
-0.289542
-0.307617
-0.324472
-0.340039
-0.354243
-0.366997
-0.378207
-0.387782
-0.395638
-0.401699
-0.405906
-0.40821
-0.408576
-0.406994
-0.40347
-0.397967
-0.390528
-0.381205
-0.37005
-0.357134
-0.342551
-0.326415
-0.308871
-0.290102
-0.270352
-0.249947
-0.22933
-0.209078
-0.18991
-0.172576
-0.157804
-0.14564
-0.136478
-0.127366
-0.120957
-0.119752
-0.0953929
-0.0943583
-0.0936185
-0.094753
-0.0989671
-0.106766
-0.118066
-0.132474
-0.149473
-0.168455
-0.18874
-0.209644
-0.230561
-0.251023
-0.270701
-0.289377
-0.306904
-0.323167
-0.338061
-0.35148
-0.363318
-0.373472
-0.381848
-0.38836
-0.39294
-0.395532
-0.396095
-0.394606
-0.391081
-0.385472
-0.377813
-0.368157
-0.356552
-0.343068
-0.327795
-0.31085
-0.292386
-0.2726
-0.251762
-0.230237
-0.20852
-0.187249
-0.167206
-0.149187
-0.133948
-0.121543
-0.112313
-0.103835
-0.0977759
-0.0962665
-0.0925473
-0.091667
-0.0908418
-0.0911561
-0.0936422
-0.0989696
-0.107388
-0.118849
-0.133122
-0.149824
-0.168427
-0.188302
-0.208806
-0.229358
-0.249491
-0.268854
-0.287193
-0.304319
-0.320074
-0.334322
-0.346938
-0.357804
-0.366815
-0.373879
-0.378917
-0.381868
-0.382686
-0.38134
-0.377845
-0.37215
-0.364281
-0.354285
-0.34221
-0.328121
-0.312107
-0.294288
-0.274821
-0.253924
-0.231894
-0.209136
-0.1862
-0.163787
-0.142734
-0.12388
-0.107994
-0.0950924
-0.085469
-0.076996
-0.0705326
-0.068044
-0.0899959
-0.0892784
-0.0884905
-0.0882429
-0.0892163
-0.0920531
-0.0972988
-0.105339
-0.116341
-0.130225
-0.146657
-0.1651
-0.184897
-0.20537
-0.225911
-0.246015
-0.265294
-0.28345
-0.300252
-0.315516
-0.329084
-0.34082
-0.350605
-0.358339
-0.363938
-0.367334
-0.368476
-0.367332
-0.363904
-0.358156
-0.350096
-0.339766
-0.327214
-0.312502
-0.295718
-0.276983
-0.256466
-0.2344
-0.211112
-0.187052
-0.162818
-0.139171
-0.116996
-0.0971558
-0.080415
-0.0667076
-0.0563754
-0.0471183
-0.0394299
-0.0346845
-0.0877303
-0.0871884
-0.086528
-0.085942
-0.0856509
-0.0860842
-0.0879788
-0.0921934
-0.0994078
-0.109939
-0.123707
-0.140297
-0.15906
-0.179241
-0.200091
-0.220945
-0.241254
-0.26059
-0.278622
-0.295094
-0.309802
-0.322581
-0.333297
-0.341838
-0.348113
-0.352052
-0.353602
-0.352727
-0.349422
-0.343665
-0.335446
-0.324806
-0.311793
-0.296467
-0.278917
-0.259267
-0.237697
-0.214459
-0.189909
-0.164532
-0.138974
-0.114037
-0.0906339
-0.069636
-0.0517786
-0.0369174
-0.0255011
-0.0145308
-0.00510661
0.00387081
-0.0856936
-0.0853574
-0.0848943
-0.0841216
-0.0827665
-0.0809328
-0.0794258
-0.0795476
-0.0825592
-0.0892726
-0.0999307
-0.114275
-0.131685
-0.151341
-0.172363
-0.193921
-0.215301
-0.235923
-0.255335
-0.273187
-0.289215
-0.303212
-0.315019
-0.324511
-0.33159
-0.336183
-0.338235
-0.33771
-0.334595
-0.328888
-0.320566
-0.309665
-0.296238
-0.280346
-0.262081
-0.241573
-0.219014
-0.194673
-0.168929
-0.142295
-0.115442
-0.0891862
-0.0644363
-0.0420366
-0.0226763
-0.00616907
0.00691955
0.0206679
0.0315961
0.0474337
-0.083765
-0.0836895
-0.0834818
-0.0825777
-0.0802449
-0.0762589
-0.0714129
-0.0673696
-0.0659641
-0.0685593
-0.0757834
-0.0875758
-0.103366
-0.12228
-0.143316
-0.165491
-0.187924
-0.209875
-0.230757
-0.250116
-0.267606
-0.28297
-0.296014
-0.306593
-0.314602
-0.319961
-0.322616
-0.322533
-0.319695
-0.314113
-0.305767
-0.294688
-0.280934
-0.264574
-0.245705
-0.224467
-0.201062
-0.175772
-0.14899
-0.121234
-0.093169
-0.065581
-0.0393231
-0.01516
0.00630839
0.0253253
0.0412947
0.0592771
0.0716212
0.0980894
-0.0817503
-0.082002
-0.0820826
-0.080992
-0.0776255
-0.0715391
-0.0635076
-0.0554573
-0.0497098
-0.0481569
-0.0518387
-0.0609298
-0.0749354
-0.0929434
-0.11385
-0.136527
-0.159939
-0.183192
-0.20556
-0.226476
-0.245508
-0.262334
-0.276719
-0.288493
-0.297535
-0.303762
-0.307119
-0.307574
-0.305111
-0.299746
-0.29148
-0.280343
-0.266396
-0.249721
-0.230424
-0.208658
-0.184631
-0.158633
-0.131046
-0.102367
-0.0732068
-0.0442646
-0.0162727
0.010152
0.0345754
0.0574276
0.0783169
0.103088
0.120096
0.163152
-0.079436
-0.0800431
-0.0804091
-0.0789677
-0.0743682
-0.0661593
-0.055184
-0.0435298
-0.0338552
-0.0284757
-0.0288094
-0.0352777
-0.0474884
-0.064519
-0.0851857
-0.108243
-0.132515
-0.156972
-0.180758
-0.203194
-0.223759
-0.242063
-0.257825
-0.270844
-0.280983
-0.288149
-0.292287
-0.293368
-0.291382
-0.286344
-0.27828
-0.267228
-0.253262
-0.236477
-0.21699
-0.194961
-0.170602
-0.14419
-0.116078
-0.086695
-0.0565465
-0.026178
0.00387672
0.0332312
0.0617048
0.090047
0.118264
0.153447
0.183231
0.247931
-0.0769266
-0.0777745
-0.0782708
-0.0762239
-0.0701739
-0.0597479
-0.0460848
-0.0314354
-0.0185669
-0.0100389
-0.00755507
-0.0117513
-0.0223487
-0.038447
-0.0588203
-0.0821396
-0.107123
-0.132624
-0.157677
-0.181503
-0.203497
-0.223205
-0.240296
-0.254538
-0.265772
-0.273899
-0.278861
-0.280632
-0.279212
-0.274619
-0.26689
-0.256075
-0.242271
-0.225594
-0.206171
-0.184159
-0.159759
-0.133219
-0.10483
-0.0749211
-0.0438348
-0.0118869
0.0206949
0.0539043
0.0879861
0.124132
0.162655
0.212314
0.259823
0.338403
-0.0755073
-0.076204
-0.0763299
-0.0731037
-0.0652233
-0.0525734
-0.0364995
-0.019511
-0.00438409
0.00638148
0.0108894
0.00835984
-0.00100555
-0.0163451
-0.0364348
-0.0599086
-0.085418
-0.111738
-0.137818
-0.162802
-0.186014
-0.206943
-0.225214
-0.240563
-0.252814
-0.261854
-0.267623
-0.2701
-0.269292
-0.26523
-0.257972
-0.247558
-0.234076
-0.217669
-0.198488
-0.176689
-0.152446
-0.12596
-0.0974424
-0.0670924
-0.0350502
-0.00132236
0.0343232
0.0725534
0.114536
0.162601
0.217818
0.288947
0.349323
0.424305
-0.0796823
-0.078981
-0.0773695
-0.071758
-0.061211
-0.0459752
-0.0276555
-0.00885311
0.00765322
0.0196531
0.025383
0.0238438
0.0152237
0.000361968
-0.019542
-0.04312
-0.068996
-0.0959006
-0.122733
-0.148581
-0.172719
-0.194594
-0.213795
-0.230033
-0.243113
-0.252915
-0.259375
-0.262473
-0.26222
-0.258656
-0.251845
-0.241876
-0.228827
-0.212777
-0.193883
-0.172323
-0.14826
-0.121846
-0.0932123
-0.0624203
-0.0293851
0.00625877
0.0453609
0.0896362
0.142004
0.207687
0.291483
0.403412
0.49569
0.603283
-0.103113
-0.0952904
-0.0868417
-0.0760519
-0.0616892
-0.0433613
-0.0227129
-0.00232192
0.0153652
0.0281385
0.0343104
0.033195
0.0249844
0.0104692
-0.00919661
-0.0326792
-0.0586181
-0.0857398
-0.112924
-0.13923
-0.163902
-0.186354
-0.20615
-0.222978
-0.236629
-0.24697
-0.253931
-0.257491
-0.257661
-0.254484
-0.248025
-0.23837
-0.225616
-0.209872
-0.191264
-0.169929
-0.146017
-0.11965
-0.0908928
-0.0596807
-0.0257114
0.0117592
0.054247
0.104673
0.168168
0.254225
0.375523
0.555585
0.767569
1.10775
-0.189946
-0.112187
-0.0805974
-0.0713676
-0.0580909
-0.0387214
-0.0170311
0.00396651
0.0217634
0.0341858
0.03983
0.0382141
0.029611
0.0148402
-0.00495142
-0.0284665
-0.0543904
-0.0814885
-0.108667
-0.135
-0.159737
-0.18229
-0.202218
-0.219201
-0.233022
-0.243545
-0.250694
-0.254444
-0.254804
-0.251817
-0.245546
-0.236075
-0.223504
-0.207941
-0.189506
-0.168331
-0.144549
-0.118255
-0.0894544
-0.0579871
-0.0233857
0.0153739
0.0602846
0.11509
0.186351
0.286412
0.435166
0.680246
1.07927
1.82845
)
;

boundaryField
{
    movingWall
    {
        type            zeroGradient;
    }
    fixedWalls
    {
        type            zeroGradient;
    }
    frontAndBack
    {
        type            empty;
    }
}


// ************************************************************************* //
