/*--------------------------------*- C++ -*----------------------------------*\
  =========                 |
  \\      /  F ield         | OpenFOAM: The Open Source CFD Toolbox
   \\    /   O peration     | Website:  https://openfoam.org
    \\  /    A nd           | Version:  7
     \\/     M anipulation  |
\*---------------------------------------------------------------------------*/
FoamFile
{
    version     2.0;
    format      ascii;
    class       surfaceScalarField;
    location    "850";
    object      phi;
}
// * * * * * * * * * * * * * * * * * * * * * * * * * * * * * * * * * * * * * //

dimensions      [0 3 -1 0 0 0 0];

internalField   nonuniform List<scalar> 
4900
(
1.69079e-06
-1.71347e-06
6.22081e-06
-4.5302e-06
1.17156e-05
-5.49483e-06
1.65024e-05
-4.78675e-06
1.97499e-05
-3.24747e-06
2.13888e-05
-1.63888e-06
2.1767e-05
-3.78219e-07
2.1261e-05
5.05926e-07
2.0014e-05
1.24702e-06
1.78616e-05
2.15231e-06
1.44106e-05
3.45096e-06
9.17391e-06
5.23663e-06
1.66027e-06
7.51357e-06
-8.58248e-06
1.02427e-05
-2.19039e-05
1.33214e-05
-3.84668e-05
1.65629e-05
-5.81756e-05
1.97087e-05
-8.05945e-05
2.24189e-05
-0.000104885
2.42906e-05
-0.00012979
2.4905e-05
-0.000153682
2.38917e-05
-0.000174674
2.09917e-05
-0.000190783
1.61096e-05
-0.000200135
9.35211e-06
-0.000201209
1.07341e-06
-0.000193062
-8.14678e-06
-0.00017545
-1.76117e-05
-0.000148894
-2.6556e-05
-0.000114687
-3.42068e-05
-7.4855e-05
-3.98324e-05
-3.20487e-05
-4.28063e-05
1.06161e-05
-4.26648e-05
4.98823e-05
-3.92662e-05
8.28975e-05
-3.30152e-05
0.000107485
-2.45873e-05
0.000122379
-1.48939e-05
0.000127464
-5.08507e-06
0.00012382
3.64331e-06
0.000113446
1.03747e-05
9.87314e-05
1.47144e-05
8.20207e-05
1.67107e-05
6.52519e-05
1.67688e-05
4.97713e-05
1.54806e-05
3.63135e-05
1.34578e-05
2.51064e-05
1.12071e-05
1.60424e-05
9.06396e-06
8.89514e-06
7.14733e-06
3.59529e-06
5.29987e-06
5.05545e-07
3.08976e-06
5.05549e-07
4.46999e-06
-6.18369e-06
1.38446e-05
-1.3905e-05
2.43082e-05
-1.59584e-05
3.28967e-05
-1.33752e-05
3.79986e-05
-8.3494e-06
3.92238e-05
-2.86408e-06
3.6854e-05
1.9915e-06
3.11959e-05
6.16395e-06
2.2141e-05
1.03018e-05
9.06091e-06
1.52323e-05
-9.04196e-06
2.15537e-05
-3.32687e-05
2.94632e-05
-6.4519e-05
3.87638e-05
-0.000103232
4.8956e-05
-0.000149179
5.92678e-05
-0.000201298
6.86816e-05
-0.000257642
7.60522e-05
-0.000315499
8.02766e-05
-0.000371673
8.04642e-05
-0.000422826
7.60584e-05
-0.000465822
6.68867e-05
-0.00049798
5.31499e-05
-0.000517247
3.53772e-05
-0.000522282
1.43869e-05
-0.000512539
-8.66959e-06
-0.000488112
-3.25741e-05
-0.000449637
-5.60869e-05
-0.000398316
-7.78765e-05
-0.000335979
-9.65446e-05
-0.000265098
-0.000110713
-0.000188764
-0.00011914
-0.000110551
-0.000120877
-3.43414e-05
-0.000115476
3.57915e-05
-0.000103148
9.6155e-05
-8.49509e-05
0.000143934
-6.26724e-05
0.000177203
-3.83546e-05
0.000195173
-1.43266e-05
0.000198435
7.11219e-06
0.000189087
2.40628e-05
0.000170276
3.55221e-05
0.000145592
4.14524e-05
0.000118446
4.26267e-05
9.1604e-05
4.02999e-05
6.69335e-05
3.58776e-05
4.54227e-05
3.05748e-05
2.74622e-05
2.51079e-05
1.33368e-05
1.94253e-05
3.75612e-06
1.26705e-05
4.26167e-06
5.98578e-06
-1.21696e-05
1.73342e-05
-2.52536e-05
2.87975e-05
-2.74217e-05
3.68165e-05
-2.13941e-05
3.95291e-05
-1.1062e-05
3.63466e-05
3.18392e-07
2.72057e-05
1.11323e-05
1.18987e-05
2.14708e-05
-1.03399e-05
3.25403e-05
-4.07877e-05
4.56799e-05
-8.08044e-05
6.15702e-05
-0.000131313
7.99716e-05
-0.000192378
9.98286e-05
-0.000262894
0.000119472
-0.000340514
0.000136888
-0.000421879
0.000150047
-0.000503072
0.000157245
-0.000580141
0.000157345
-0.000649539
0.000149862
-0.000708403
0.000134923
-0.000754651
0.000113134
-0.000786928
8.54271e-05
-0.000804472
5.29205e-05
-0.000806929
1.6844e-05
-0.000794166
-2.14323e-05
-0.000766201
-6.05395e-05
-0.000723343
-9.89448e-05
-0.000666324
-0.000134895
-0.000596384
-0.000166485
-0.000515368
-0.00019173
-0.000425794
-0.000208714
-0.000330861
-0.000215811
-0.000234353
-0.000211984
-0.000140406
-0.000197095
-5.3248e-05
-0.000172109
2.31551e-05
-0.000139075
8.58293e-05
-0.000101029
0.000132982
-6.14797e-05
0.000163647
-2.35529e-05
0.000177967
9.74354e-06
0.000177477
3.60122e-05
0.000164979
5.39499e-05
0.000144022
6.35838e-05
0.000118287
6.60348e-05
9.10354e-05
6.31294e-05
6.47414e-05
5.68689e-05
4.10649e-05
4.87845e-05
2.12081e-05
3.92822e-05
6.60742e-06
2.72711e-05
1.08691e-05
6.50769e-06
-1.86774e-05
1.75939e-05
-3.63399e-05
2.69459e-05
-3.67738e-05
3.0749e-05
-2.51973e-05
2.71971e-05
-7.51014e-06
1.55966e-05
1.19188e-05
-4.58848e-06
3.13173e-05
-3.43728e-05
5.1255e-05
-7.52797e-05
7.34471e-05
-0.000128786
9.91861e-05
-0.000195621
0.000128405
-0.000275203
0.000159554
-0.000365405
0.00019003
-0.000462736
0.000216803
-0.000562882
0.000237034
-0.000661394
0.000248559
-0.000754296
0.000250148
-0.000838452
0.0002415
-0.000911649
0.00022306
-0.000972487
0.00019576
-0.00102014
0.000160787
-0.00105412
0.000119405
-0.00107407
7.28722e-05
-0.00107967
2.24494e-05
-0.00107055
-3.05594e-05
-0.00104638
-8.47063e-05
-0.00100702
-0.000138306
-0.000952534
-0.000189381
-0.000883337
-0.000235681
-0.000800358
-0.000274709
-0.000705227
-0.000303845
-0.000600434
-0.000320603
-0.000489398
-0.000323021
-0.000376386
-0.000310107
-0.000266235
-0.00028226
-0.000163798
-0.000241512
-7.33945e-05
-0.000191432
1.70286e-06
-0.000136577
5.99183e-05
-8.17683e-05
0.000100948
-3.1286e-05
0.000125047
1.19132e-05
0.000133505
4.54918e-05
0.000128827
6.82617e-05
0.000114309
8.05532e-05
9.35327e-05
8.39055e-05
6.98613e-05
8.05403e-05
4.61116e-05
7.25343e-05
2.46343e-05
6.07595e-05
7.92778e-06
4.39777e-05
1.87969e-05
6.20426e-06
-2.48817e-05
1.48915e-05
-4.50273e-05
1.91978e-05
-4.10801e-05
1.54627e-05
-2.14623e-05
2.13924e-06
5.81324e-06
-2.16572e-05
3.57152e-05
-5.71041e-05
6.67641e-05
-0.000105928
0.000100079
-0.000169753
0.000137272
-0.000249139
0.000178573
-0.000342901
0.000222167
-0.000448019
0.000264672
-0.00056011
0.000302121
-0.00067423
0.000330923
-0.000785701
0.000348505
-0.000890705
0.000353563
-0.000986516
0.000345959
-0.00107142
0.000326402
-0.00114445
0.000296095
-0.00120514
0.000256447
-0.00125324
0.000208885
-0.00128859
0.000154758
-0.00131106
9.53433e-05
-0.00132049
3.1878e-05
-0.00131661
-3.44447e-05
-0.00129904
-0.000102271
-0.00126731
-0.000170032
-0.00122086
-0.000235835
-0.00115914
-0.000297399
-0.00108187
-0.00035198
-0.000989291
-0.000396425
-0.000882502
-0.000427392
-0.000763793
-0.00044173
-0.00063686
-0.00043704
-0.000506771
-0.000412349
-0.000379554
-0.000368729
-0.000261408
-0.000309578
-0.000157635
-0.00024035
-7.17631e-05
-0.00016764
-5.23464e-06
-9.78145e-05
4.24919e-05
-3.58132e-05
7.26619e-05
1.53218e-05
8.68788e-05
5.40449e-05
8.76697e-05
7.97623e-05
7.82429e-05
9.33323e-05
6.21103e-05
9.66729e-05
4.27327e-05
9.19119e-05
2.34046e-05
8.00877e-05
7.60209e-06
5.97802e-05
2.6399e-05
4.89675e-06
-2.97785e-05
8.87475e-06
-4.90054e-05
5.27866e-06
-3.74841e-05
-8.94097e-06
-7.24275e-06
-3.51289e-05
3.20011e-05
-7.44483e-05
7.50345e-05
-0.000128618
0.000120934
-0.000199386
0.000170846
-0.000287308
0.000225193
-0.000390858
0.000282123
-0.000506389
0.000337698
-0.000628835
0.000387118
-0.000752749
0.000426034
-0.000873222
0.000451395
-0.000986452
0.000461735
-0.00108988
0.000456994
-0.00118203
0.000438106
-0.00126219
0.00040656
-0.00133016
0.000364071
-0.00138609
0.000312373
-0.00143029
0.00025308
-0.00146317
0.000187639
-0.00148516
0.000117333
-0.00149658
4.32969e-05
-0.00149752
-3.35015e-05
-0.00148775
-0.000112039
-0.00146665
-0.000191131
-0.00143317
-0.000269312
-0.00138593
-0.000344644
-0.00132336
-0.000414553
-0.001244
-0.000475777
-0.00114697
-0.000524426
-0.00103246
-0.000556242
-0.000902346
-0.000567153
-0.000760591
-0.000554103
-0.000613316
-0.000516004
-0.000468304
-0.00045459
-0.000333817
-0.000374837
-0.000216921
-0.000284536
-0.000121923
-0.000192812
-4.9784e-05
-0.000107953
1.13105e-06
-3.55933e-05
3.34238e-05
2.17522e-05
4.96461e-05
6.35401e-05
5.27566e-05
9.02218e-05
4.61694e-05
0.00010326
3.35868e-05
0.000104495
1.88699e-05
9.48047e-05
6.1129e-06
7.25372e-05
3.25119e-05
2.27219e-06
-3.20507e-05
-9.21825e-07
-4.58115e-05
-1.50187e-05
-2.33874e-05
-4.22104e-05
1.99487e-05
-8.368e-05
7.34706e-05
-0.000140862
0.000132216
-0.000215456
0.000195527
-0.000308139
0.000263529
-0.000417372
0.000334426
-0.000539208
0.000403959
-0.000668098
0.000466588
-0.000798108
0.000517129
-0.000923968
0.000551895
-0.00104166
0.000569088
-0.00114853
0.000568606
-0.00124311
0.000551568
-0.00132481
0.000519805
-0.00139371
0.000475464
-0.00145039
0.00042075
-0.00149576
0.00035774
-0.00153093
0.00028825
-0.00155706
0.000213778
-0.00157524
0.000135504
-0.00158625
5.43136e-05
-0.0015906
-2.91551e-05
-0.00158829
-0.000114353
-0.00157878
-0.00020064
-0.0015609
-0.000287192
-0.00153282
-0.000372719
-0.00149211
-0.000455264
-0.00143588
-0.000532004
-0.00136122
-0.000599092
-0.00126574
-0.000651722
-0.0011484
-0.00068449
-0.00101039
-0.000692117
-0.00085587
-0.000670521
-0.000692267
-0.000618193
-0.000529621
-0.000537483
-0.000378943
-0.000435214
-0.000249716
-0.000322039
-0.000147422
-0.000210247
-7.25248e-05
-0.00011049
-2.17222e-05
-2.90504e-05
9.30797e-06
3.251e-05
2.44241e-05
7.51057e-05
2.74101e-05
0.000100274
2.22231e-05
0.000109682
1.30428e-05
0.000103985
4.21186e-06
8.13682e-05
3.67237e-05
-1.92033e-06
-3.01305e-05
-1.46626e-05
-3.30694e-05
-4.13398e-05
3.28965e-06
-8.32425e-05
6.18512e-05
-0.000141383
0.000131611
-0.000217158
0.000207991
-0.00031135
0.000289719
-0.000422673
0.000374853
-0.000547234
0.000458987
-0.000679226
0.000535951
-0.000812262
0.000599623
-0.00094058
0.000645446
-0.00105973
0.000671049
-0.00116677
0.00067612
-0.00126005
0.000661893
-0.00133906
0.000630574
-0.00140411
0.00058486
-0.00145623
0.000527578
-0.0014969
0.000461419
-0.00152789
0.000388729
-0.00155102
0.000311384
-0.00156801
0.000230764
-0.00158029
0.000147787
-0.00158897
6.29929e-05
-0.00159477
-2.33522e-05
-0.00159796
-0.000111164
-0.00159828
-0.000200325
-0.00159482
-0.000290651
-0.00158591
-0.000381622
-0.00156901
-0.000472171
-0.00154064
-0.000560365
-0.00149662
-0.000643113
-0.00143237
-0.000715971
-0.00134374
-0.000773126
-0.00122812
-0.000807739
-0.00108578
-0.000812857
-0.000921028
-0.000782946
-0.000742709
-0.000715803
-0.000563567
-0.000614356
-0.000397979
-0.000487627
-0.000258342
-0.000349884
-0.000151427
-0.000217406
-7.68811e-05
-0.000103596
-2.92429e-05
-1.51282e-05
-2.08418e-06
4.7947e-05
9.96603e-06
8.82241e-05
1.17252e-05
0.000107923
7.7888e-06
0.000107921
2.6002e-06
8.65569e-05
3.9324e-05
-7.74818e-06
-2.23823e-05
-3.19083e-05
-8.90949e-06
-7.25136e-05
4.38948e-05
-0.000129822
0.000119159
-0.000204654
0.000206442
-0.000297739
0.000301076
-0.000408182
0.000400162
-0.000532474
0.000499144
-0.000664838
0.000591351
-0.000798542
0.000669655
-0.000927275
0.000728356
-0.00104602
0.000764191
-0.00115136
0.00077639
-0.00124141
0.000766172
-0.00131562
0.000736102
-0.00137454
0.000689497
-0.00141961
0.000629928
-0.00145286
0.000560823
-0.0014766
0.000485166
-0.00149318
0.000405306
-0.00150471
0.000322911
-0.00151298
0.000239035
-0.00151942
0.000154222
-0.00152507
6.86456e-05
-0.00153066
-1.77565e-05
-0.00153662
-0.000105212
-0.00154299
-0.000193954
-0.00154939
-0.000284244
-0.00155483
-0.000376191
-0.00155743
-0.000469569
-0.00155426
-0.000563538
-0.00154107
-0.000656302
-0.00151237
-0.000744668
-0.00146189
-0.00082361
-0.00138352
-0.000886107
-0.00127283
-0.000923549
-0.00112888
-0.000926892
-0.000956028
-0.000888656
-0.000764785
-0.000805599
-0.00057104
-0.000681371
-0.000393009
-0.000527916
-0.000246223
-0.000364191
-0.000138429
-0.00021139
-6.77268e-05
-8.58301e-05
-2.59119e-05
6.13217e-06
-4.32173e-06
6.6634e-05
3.86425e-06
9.97366e-05
4.27942e-06
0.000107506
1.71403e-06
8.91223e-05
4.1038e-05
-1.49388e-05
-7.4436e-06
-5.16765e-05
2.7828e-05
-0.000106506
9.8724e-05
-0.000178752
0.000191405
-0.000268764
0.000296454
-0.000375998
0.000408311
-0.000497587
0.00052175
-0.00062813
0.000629687
-0.000760772
0.000723994
-0.000888695
0.000797578
-0.00100624
0.000845898
-0.00110941
0.000867362
-0.00119596
0.000862939
-0.00126524
0.000835452
-0.00131799
0.000788851
-0.00135603
0.00072754
-0.00138191
0.000655803
-0.00139844
0.000577357
-0.00140837
0.000495094
-0.00141406
0.000411002
-0.00141743
0.000326275
-0.00141988
0.000241486
-0.00142243
0.000156776
-0.0014258
7.2013e-05
-0.00143049
-1.30662e-05
-0.0014369
-9.88028e-05
-0.0014453
-0.000185557
-0.0014558
-0.000273737
-0.00146825
-0.000363743
-0.00148192
-0.000455897
-0.00149516
-0.000550295
-0.00150496
-0.000646511
-0.00150656
-0.000743066
-0.00149341
-0.000836754
-0.00145752
-0.000921997
-0.0013906
-0.000990473
-0.00128608
-0.00103141
-0.00114171
-0.00103303
-0.000961941
-0.000985369
-0.000759277
-0.000884035
-0.000553285
-0.000733908
-0.000366438
-0.000551038
-0.000217218
-0.00036061
-0.000113361
-0.000189688
-5.02024e-05
-5.7026e-05
-1.63472e-05
3.27788e-05
-1.2948e-06
8.46842e-05
2.74615e-06
0.000103465
1.64784e-06
9.02207e-05
4.26858e-05
-2.29931e-05
1.55494e-05
-7.2457e-05
7.72917e-05
-0.000140724
0.000166991
-0.000226279
0.00027696
-0.000328598
0.000398773
-0.000445551
0.000525265
-0.000572471
0.00064867
-0.000702721
0.000759936
-0.000829145
0.000850418
-0.000945437
0.00091387
-0.00104694
0.0009474
-0.00113091
0.000951333
-0.00119649
0.000928518
-0.00124449
0.000883457
-0.00127708
0.000821434
-0.00129724
0.000747705
-0.00130829
0.000666854
-0.00131334
0.000582405
-0.00131496
0.000496716
-0.00131507
0.000411112
-0.00131495
0.000326153
-0.00131537
0.000241908
-0.00131678
0.000158181
-0.00131943
7.46636e-05
-0.00132353
-8.96587e-06
-0.00132932
-9.30106e-05
-0.00133711
-0.00017777
-0.0013473
-0.000263548
-0.00136032
-0.000350722
-0.00137645
-0.000439772
-0.00139547
-0.000531274
-0.00141624
-0.000625741
-0.00143605
-0.00072325
-0.00144999
-0.000822816
-0.00145053
-0.000921455
-0.00142792
-0.00101309
-0.00137155
-0.00108778
-0.00127255
-0.00113203
-0.00112723
-0.00113069
-0.000940431
-0.00107083
-0.000727348
-0.000946991
-0.000511974
-0.000766413
-0.000321277
-0.000551306
-0.000175862
-0.000335104
-8.16313e-05
-0.000151256
-2.96276e-05
-1.92249e-05
-5.40022e-06
6.04569e-05
2.49e-06
9.55752e-05
2.18056e-06
9.05301e-05
4.48664e-05
-3.11688e-05
4.67181e-05
-9.2437e-05
0.00013856
-0.000172432
0.000246985
-0.00026868
0.000373208
-0.000379523
0.000509615
-0.000501273
0.000647015
-0.000627938
0.000775334
-0.000752341
0.000884339
-0.00086764
0.000965717
-0.000968453
0.00101468
-0.0010514
0.00103034
-0.00111521
0.00101515
-0.00116063
0.00097393
-0.00118997
0.000912805
-0.00120664
0.000838103
-0.00121438
0.000755443
-0.00121667
0.000669144
-0.00121631
0.000582038
-0.00121522
0.000495628
-0.00121455
0.000410443
-0.00121483
0.000326432
-0.0012162
0.000243277
-0.00121861
0.000160593
-0.00122197
7.803e-05
-0.00122626
-4.6835e-06
-0.00123153
-8.77408e-05
-0.001238
-0.000171294
-0.00124609
-0.000255459
-0.00125638
-0.000340432
-0.0012696
-0.000426551
-0.0012865
-0.000514377
-0.00130753
-0.000604707
-0.00133228
-0.000698503
-0.00135857
-0.00079653
-0.00138151
-0.000898512
-0.00139282
-0.00100178
-0.00138094
-0.00109966
-0.00133271
-0.00118025
-0.0012368
-0.0012266
-0.00108832
-0.0012193
-0.000893265
-0.00114205
-0.000670557
-0.00098912
-0.000449579
-0.000772284
-0.000261707
-0.000522975
-0.000127807
-0.000285156
-4.91662e-05
-9.78662e-05
-1.12834e-05
2.25741e-05
2.1545e-06
8.21373e-05
2.87986e-06
8.98048e-05
4.77463e-05
-3.85909e-05
8.53089e-05
-0.000109888
0.000209857
-0.000199145
0.000336242
-0.000302818
0.000476881
-0.000418048
0.000624845
-0.000539876
0.000768844
-0.000661561
0.000897019
-0.000775987
0.000998764
-0.000877074
0.0010668
-0.00096066
0.00109827
-0.00102486
0.00109454
-0.00107004
0.00106033
-0.00109851
0.0010024
-0.00111388
0.000928173
-0.00112027
0.000844493
-0.00112154
0.000756711
-0.00112072
0.00066833
-0.00111984
0.00058115
-0.00111993
0.000495721
-0.00112135
0.000411861
-0.00112401
0.000329092
-0.00112764
0.000246909
-0.00113195
0.000164901
-0.0011367
8.27823e-05
-0.00114176
3.77603e-07
-0.00114711
-8.23939e-05
-0.00115284
-0.000165558
-0.00115921
-0.000249095
-0.00116662
-0.000333021
-0.00117574
-0.000417431
-0.00118752
-0.000502596
-0.00120313
-0.000589103
-0.00122364
-0.000677986
-0.00124945
-0.000770719
-0.00127914
-0.000868828
-0.00130804
-0.000972873
-0.00132709
-0.00108062
-0.00132274
-0.0011846
-0.00127912
-0.00127023
-0.00118246
-0.00131596
-0.00102728
-0.00129723
-0.000821983
-0.00119442
-0.000590952
-0.00100332
-0.000369945
-0.000743982
-0.000193731
-0.000461369
-8.00022e-05
-0.000211595
-2.19578e-05
-3.54704e-05
2.42223e-07
5.99373e-05
3.27126e-06
8.67757e-05
5.10175e-05
-4.44922e-05
0.000129801
-0.000123381
0.000288746
-0.000218948
0.000431808
-0.000326513
0.000584446
-0.000442138
0.00074047
-0.000560009
0.000886715
-0.000673179
0.00101019
-0.000775056
0.00110064
-0.000860636
0.00115238
-0.000927178
0.00116481
-0.000974397
0.00114176
-0.00100425
0.00109018
-0.00102032
0.00101848
-0.001027
0.00093485
-0.00102849
0.000845978
-0.00102812
0.000756347
-0.00102808
0.000668283
-0.0010294
0.00058247
-0.00103231
0.000498636
-0.00103659
0.000416136
-0.00104181
0.000334317
-0.00104759
0.000252683
-0.0010536
0.000170914
-0.00105965
8.8835e-05
-0.00106564
6.3658e-06
-0.00107153
-7.65018e-05
-0.00107735
-0.000159736
-0.00108318
-0.000243274
-0.00108916
-0.000327034
-0.00109565
-0.000410939
-0.00110327
-0.000494982
-0.00111302
-0.000579353
-0.00112635
-0.000664649
-0.00114498
-0.000752093
-0.00117013
-0.000843675
-0.0012012
-0.000941812
-0.00123375
-0.00104806
-0.00125781
-0.00116054
-0.00125758
-0.00127046
-0.00121416
-0.00135939
-0.00111165
-0.00139974
-0.000945242
-0.00136082
-0.000727932
-0.00122063
-0.000491658
-0.000980257
-0.000279034
-0.000673993
-0.000125357
-0.000365273
-3.96862e-05
-0.000121141
-4.3985e-06
2.46496e-05
3.02931e-06
7.93479e-05
5.40468e-05
-4.83023e-05
0.000178103
-0.000131933
0.000372376
-0.000230661
0.000530536
-0.000338681
0.000692466
-0.00045121
0.000852998
-0.000562022
0.000997527
-0.000664412
0.00111258
-0.00075264
0.00118887
-0.000822966
0.00122271
-0.000874147
0.00121599
-0.000907425
0.00117504
-0.000926057
0.00110881
-0.000934442
0.00102686
-0.000937075
0.000937483
-0.000937657
0.000846559
-0.000938619
0.000757309
-0.000941121
0.000670784
-0.000945364
0.000586713
-0.000951017
0.00050429
-0.000957575
0.000422694
-0.000964577
0.000341319
-0.000971696
0.000259802
-0.000978746
0.000177964
-0.000985644
9.57322e-05
-0.000992368
1.30899e-05
-0.000998922
-6.99472e-05
-0.00100531
-0.000153349
-0.00101152
-0.000237067
-0.00101753
-0.000321018
-0.00102339
-0.000405079
-0.00102927
-0.000489103
-0.00103564
-0.000572983
-0.00104349
-0.0006568
-0.00105448
-0.000741103
-0.00107084
-0.000827309
-0.00109466
-0.000917996
-0.00112612
-0.0010166
-0.00116092
-0.00112574
-0.00118771
-0.00124367
-0.00118783
-0.00135926
-0.00113922
-0.00144835
-0.00102472
-0.00147533
-0.000842373
-0.00140297
-0.00061283
-0.0012098
-0.000377834
-0.000908989
-0.000185644
-0.000557462
-6.59176e-05
-0.000240868
-1.23417e-05
-2.89261e-05
2.03849e-06
6.49677e-05
5.60853e-05
-4.96922e-05
0.000227795
-0.000135053
0.000457737
-0.000233861
0.000629344
-0.000339253
0.000797858
-0.000445893
0.000959638
-0.000547538
0.00109917
-0.000638059
0.0012031
-0.00071276
0.00126357
-0.000769233
0.00127918
-0.000807653
0.00125441
-0.000830536
0.00119792
-0.000841989
0.00112027
-0.00084663
0.0010315
-0.000848525
0.000939379
-0.000850492
0.000848526
-0.000853943
0.000760761
-0.000859171
0.000676012
-0.000865821
0.000593362
-0.00087332
0.000511789
-0.000881159
0.000430534
-0.000889
0.000349161
-0.000896679
0.000267481
-0.000904153
0.000185439
-0.000911452
0.000103031
-0.000918626
2.02636e-05
-0.000925717
-6.2856e-05
-0.000932739
-0.000146327
-0.000939667
-0.000230139
-0.00094643
-0.000314256
-0.000952914
-0.000398595
-0.000959006
-0.00048301
-0.000964701
-0.000567289
-0.000970292
-0.000651208
-0.000976676
-0.000734719
-0.000985663
-0.000818322
-0.00100002
-0.000903644
-0.00102265
-0.000993966
-0.00105443
-0.00109396
-0.0010907
-0.0012074
-0.001118
-0.00133196
-0.00111407
-0.00145228
-0.00105371
-0.00153569
-0.000920292
-0.00153639
-0.000718363
-0.00141173
-0.0004801
-0.00114725
-0.000258172
-0.00077939
-0.000101472
-0.000397568
-2.37509e-05
-0.000106647
3.05649e-07
4.09113e-05
5.6391e-05
-4.85755e-05
0.000276371
-0.000132714
0.000541876
-0.000228785
0.000725414
-0.00032898
0.000898052
-0.000427691
0.00105835
-0.000518977
0.00119046
-0.000597497
0.00128162
-0.000659678
0.00132575
-0.000704376
0.00132388
-0.000732965
0.001283
-0.00074884
0.0012138
-0.000756447
0.00112787
-0.000760116
0.00103517
-0.000763125
0.000942388
-0.000767304
0.000852705
-0.000773186
0.000766643
-0.000780487
0.000683314
-0.00078861
0.000601485
-0.000797
0.000520178
-0.000805292
0.000438826
-0.000813327
0.000357196
-0.000821092
0.000275246
-0.000828654
0.000193
-0.000836102
0.00011048
-0.000843523
2.7684e-05
-0.000850978
-5.54007e-05
-0.000858497
-0.000138807
-0.000866073
-0.000222563
-0.000873648
-0.000306682
-0.000881095
-0.000391147
-0.000888222
-0.000475884
-0.000894786
-0.000560724
-0.000900604
-0.000645391
-0.000905782
-0.000729541
-0.000911125
-0.000812979
-0.000918614
-0.000896155
-0.000931561
-0.000981019
-0.000953694
-0.00107183
-0.000986302
-0.00117479
-0.00102359
-0.00129467
-0.0010487
-0.00142717
-0.00103491
-0.00154948
-0.000954829
-0.00161646
-0.000795851
-0.00157071
-0.000574118
-0.00136898
-0.000337107
-0.0010164
-0.000146079
-0.000588597
-3.9e-05
-0.000213726
-2.30876e-06
4.21992e-06
5.40822e-05
-4.50721e-05
0.000321443
-0.000125258
0.000622062
-0.000216164
0.00081632
-0.00030916
0.000991047
-0.00039861
0.0011478
-0.000479097
0.00127094
-0.000546178
0.0013487
-0.000597367
0.00137694
-0.000632605
0.00135912
-0.000654139
0.00130453
-0.000665807
0.00122547
-0.000671934
0.001134
-0.000676217
0.00103946
-0.000681021
0.000947192
-0.0006873
0.000858983
-0.000694978
0.000774321
-0.000703498
0.000691834
-0.000712267
0.000610254
-0.000720879
0.00052879
-0.000729157
0.000447104
-0.000737098
0.000365137
-0.000744787
0.000282936
-0.000752341
0.000200554
-0.000759868
0.000118007
-0.000767454
3.52702e-05
-0.000775163
-4.76919e-05
-0.000783029
-0.000130941
-0.000791062
-0.00021453
-0.000799237
-0.000298506
-0.000807475
-0.000382909
-0.00081562
-0.000467739
-0.000823415
-0.000552929
-0.000830512
-0.000638294
-0.000836569
-0.000723483
-0.000841532
-0.000808016
-0.000846147
-0.00089154
-0.000852642
-0.000974524
-0.000865005
-0.00105947
-0.000887753
-0.00115205
-0.000922016
-0.00126041
-0.00095949
-0.00138969
-0.000978291
-0.00153068
-0.000946806
-0.00164795
-0.000838076
-0.00167944
-0.000649276
-0.00155779
-0.000414472
-0.0012512
-0.000197696
-0.000805374
-5.87486e-05
-0.000352673
-5.87643e-06
-4.86524e-05
4.82057e-05
-3.94551e-05
0.000360898
-0.000113285
0.000695891
-0.00019704
0.000900075
-0.000281388
0.0010754
-0.000360839
0.00122725
-0.000430643
0.00134075
-0.000487268
0.00140533
-0.000529187
0.00141886
-0.000557172
0.0013871
-0.000573977
0.00132134
-0.000583478
0.00123497
-0.000589548
0.00114007
-0.000595091
0.001045
-0.000601628
0.00095373
-0.000609465
0.00086682
-0.000618196
0.000783052
-0.000627228
0.000700866
-0.0006361
0.000619127
-0.000644594
0.000537283
-0.000652691
0.000455201
-0.000660485
0.000372931
-0.000668106
0.000290557
-0.000675677
0.000208125
-0.000683298
0.000125628
-0.000691043
4.30149e-05
-0.000698964
-3.97706e-05
-0.000707093
-0.000122812
-0.000715446
-0.000206177
-0.000724021
-0.000289931
-0.000732782
-0.000374147
-0.000741642
-0.00045888
-0.000750421
-0.00054415
-0.000758818
-0.000629897
-0.000766393
-0.000715908
-0.000772667
-0.000801743
-0.000777453
-0.000886754
-0.000781541
-0.000970435
-0.000787587
-0.00105342
-0.000800427
-0.00113921
-0.000825205
-0.00123563
-0.000861848
-0.00135305
-0.000897444
-0.00149509
-0.000903232
-0.00164216
-0.000843823
-0.00173885
-0.000698322
-0.00170329
-0.000482054
-0.00146747
-0.000252245
-0.00103518
-8.31455e-05
-0.000521773
-1.03783e-05
-0.00012142
3.78274e-05
-3.20963e-05
0.000392994
-9.75424e-05
0.000761337
-0.000172598
0.000975131
-0.000247331
0.00115013
-0.000316505
0.00129642
-0.000376098
0.00140034
-0.000423429
0.00145266
-0.000457748
0.00145318
-0.000480366
0.00140972
-0.000494196
0.00133517
-0.000502837
0.00124361
-0.000509518
0.00114675
-0.000516362
0.00105184
-0.000524214
0.000961582
-0.000532982
0.000875587
-0.000542154
0.000792225
-0.000551233
0.000709945
-0.000559933
0.000627827
-0.000568193
0.000545544
-0.000576097
0.000463105
-0.000583783
0.000380617
-0.000591386
0.00029816
-0.000599017
0.000215756
-0.000606759
0.000133371
-0.000614672
5.09277e-05
-0.000622799
-3.16432e-05
-0.000631165
-0.000114447
-0.000639784
-0.000197557
-0.000648662
-0.000281053
-0.000657786
-0.000365023
-0.000667114
-0.000449552
-0.000676549
-0.000534715
-0.000685897
-0.00062055
-0.000694808
-0.000706997
-0.000702754
-0.000793796
-0.000709136
-0.000880372
-0.0007137
-0.000965871
-0.000717438
-0.00104968
-0.000723718
-0.00113293
-0.000738443
-0.00122091
-0.000766881
-0.00132461
-0.000805759
-0.00145621
-0.000834667
-0.00161325
-0.000817112
-0.0017564
-0.000718384
-0.00180201
-0.000533247
-0.00165261
-0.000304443
-0.00126399
-0.000111176
-0.00071504
-1.58168e-05
-0.00021678
2.20106e-05
-2.34197e-05
0.000416413
-7.88364e-05
0.000816754
-0.000144038
0.00104033
-0.000208578
0.00121467
-0.000267514
0.00135536
-0.000317547
0.00145038
-0.000356745
0.00149185
-0.000384924
0.00148136
-0.000403648
0.00142845
-0.0004157
0.00134722
-0.000424189
0.0012521
-0.000431647
0.00115421
-0.000439515
0.00105971
-0.000448172
0.000970239
-0.000457333
0.000884748
-0.000466524
0.000801416
-0.000475394
0.000718815
-0.000483813
0.000636245
-0.000491827
0.000553559
-0.000499571
0.000470849
-0.00050719
0.000388236
-0.000514805
0.000305775
-0.000522511
0.000223461
-0.000530377
0.000141238
-0.000538457
5.90072e-05
-0.000546789
-2.33109e-05
-0.000555391
-0.000105844
-0.000564275
-0.000188673
-0.000573442
-0.000271885
-0.000582887
-0.000355579
-0.000592586
-0.000439853
-0.00060249
-0.00052481
-0.000612491
-0.000610548
-0.00062237
-0.000697119
-0.000631721
-0.000784445
-0.000639922
-0.000872172
-0.000646266
-0.000959527
-0.00065054
-0.00104541
-0.000654215
-0.00112925
-0.000661783
-0.00121334
-0.000680266
-0.00130613
-0.00071371
-0.00142276
-0.000752371
-0.00157459
-0.000765378
-0.00174339
-0.000710712
-0.00185668
-0.000564194
-0.00179913
-0.000349248
-0.00147893
-0.000140846
-0.000923441
-2.20888e-05
-0.000335537
-7.81034e-08
-1.38662e-05
0.00043028
-5.79648e-05
0.000860852
-0.000112485
0.00109485
-0.000166543
0.00126873
-0.000215468
0.00140429
-0.00025664
0.00149155
-0.000288743
0.00152396
-0.000311953
0.00150457
-0.000327841
0.00144433
-0.000338843
0.00135822
-0.000347468
0.00126072
-0.000355581
0.00116232
-0.00036409
0.00106822
-0.000373087
0.000979236
-0.000382244
0.000893906
-0.000391193
0.000810365
-0.000399727
0.000727349
-0.000407832
0.00064435
-0.000415613
0.00056134
-0.000423216
0.000478452
-0.000430776
0.000395796
-0.000438398
0.000313397
-0.000446161
0.000231224
-0.00045413
0.000149207
-0.000462358
6.72357e-05
-0.000470887
-1.47819e-05
-0.00047973
-9.70013e-05
-0.000488894
-0.000179509
-0.000498377
-0.000262403
-0.000508167
-0.000345788
-0.000518246
-0.000429774
-0.000528581
-0.000514475
-0.000539113
-0.000600016
-0.000549715
-0.000686517
-0.000560126
-0.000774033
-0.000569865
-0.000862432
-0.000578198
-0.000951194
-0.000584357
-0.00103925
-0.000588359
-0.00112525
-0.000592581
-0.00120912
-0.000603108
-0.0012956
-0.000627603
-0.00139827
-0.000665962
-0.00153623
-0.000697344
-0.00171201
-0.000679634
-0.00187439
-0.000574065
-0.0019047
-0.000382956
-0.00167004
-0.000169586
-0.00113681
-2.94056e-05
-0.000475717
-2.94837e-05
-3.85573e-06
0.000434135
-3.56922e-05
0.000892689
-7.89464e-05
0.00113811
-0.000122427
0.00131221
-0.000161655
0.00144351
-0.00019461
0.0015245
-0.000220467
0.00154981
-0.000239576
0.00152367
-0.000253321
0.00145808
-0.000263654
0.00136856
-0.000272443
0.00126951
-0.000280964
0.00117084
-0.000289734
0.00107699
-0.000298703
0.000988205
-0.000307586
0.000902789
-0.000316138
0.000818917
-0.000324273
0.000735484
-0.000332048
0.000652125
-0.000339593
0.000568884
-0.000347045
0.000485905
-0.000354524
0.000403274
-0.000362119
0.000320993
-0.000369902
0.000239007
-0.000377937
0.000157242
-0.000386285
7.55845e-05
-0.000394994
-6.07337e-06
-0.000404078
-8.79171e-05
-0.000413541
-0.000170045
-0.000423373
-0.000252571
-0.000433556
-0.000335605
-0.000444068
-0.000419262
-0.00045488
-0.000503663
-0.000465951
-0.000588945
-0.000477205
-0.000675263
-0.000488481
-0.000762758
-0.000499453
-0.00085146
-0.000509537
-0.00094111
-0.000517882
-0.0010309
-0.000523753
-0.00111938
-0.000527745
-0.00120512
-0.000533783
-0.00128956
-0.000549803
-0.00138225
-0.00058214
-0.00150389
-0.000621266
-0.00167289
-0.000631194
-0.00186446
-0.000564598
-0.00197129
-0.000403689
-0.00183095
-0.000194956
-0.00134554
-3.783e-05
-0.000632843
-6.73138e-05
6.07452e-06
0.000428061
-1.26869e-05
0.00091145
-4.43138e-05
0.00116973
-7.72207e-05
0.00134511
-0.000107072
0.00147337
-0.000132343
0.00154977
-0.000152583
0.00157005
-0.000168174
0.00153927
-0.000180181
0.00147009
-0.000189987
0.00137836
-0.000198833
0.00127836
-0.000207489
0.0011795
-0.000216203
0.0010857
-0.000224872
0.000996875
-0.000233298
0.000911215
-0.000241356
0.000826974
-0.000249047
0.000743176
-0.000256468
0.000659546
-0.000263748
0.000576165
-0.000271014
0.000493171
-0.000278368
0.000410628
-0.000285891
0.000328516
-0.00029365
0.000246767
-0.000301709
0.000165301
-0.000310142
8.4018e-05
-0.000319005
2.79002e-06
-0.000328324
-7.8598e-05
-0.000338099
-0.00016027
-0.000348309
-0.00024236
-0.000358933
-0.000324982
-0.000369941
-0.000408254
-0.000381305
-0.000492299
-0.000392988
-0.000577261
-0.000404936
-0.000663315
-0.000417043
-0.000750651
-0.000429093
-0.000839409
-0.000440667
-0.000929536
-0.000451048
-0.00102052
-0.0004593
-0.00111113
-0.000464948
-0.00119948
-0.000469759
-0.00128475
-0.000479935
-0.00137207
-0.000504532
-0.0014793
-0.000543773
-0.00163365
-0.000571793
-0.00183644
-0.000539208
-0.00200388
-0.000411332
-0.00195883
-0.000215186
-0.00154169
-4.69367e-05
-0.000801092
-0.00011425
1.53167e-05