/*--------------------------------*- C++ -*----------------------------------*\
  =========                 |
  \\      /  F ield         | OpenFOAM: The Open Source CFD Toolbox
   \\    /   O peration     | Website:  https://openfoam.org
    \\  /    A nd           | Version:  7
     \\/     M anipulation  |
\*---------------------------------------------------------------------------*/
FoamFile
{
    version     2.0;
    format      ascii;
    class       volVectorField;
    location    "850";
    object      U;
}
// * * * * * * * * * * * * * * * * * * * * * * * * * * * * * * * * * * * * * //

dimensions      [0 1 -1 0 0 0 0];

internalField   nonuniform List<vector> 
2500
(
(0.000205512 -0.000203317 0)
(0.00186289 -0.000572375 0)
(0.00447325 -0.000698049 0)
(0.00716306 -0.000600206 0)
(0.00922931 -0.000419024 0)
(0.0104506 -0.000264367 0)
(0.0109303 -0.000188053 0)
(0.010881 -0.000185947 0)
(0.0104504 -0.000219941 0)
(0.00963351 -0.000245493 0)
(0.00828129 -0.000228715 0)
(0.00616128 -0.000150755 0)
(0.00301611 -2.56664e-06 0)
(-0.001398 0.000221232 0)
(-0.00728577 0.000523786 0)
(-0.0147798 0.000908642 0)
(-0.0239025 0.00137582 0)
(-0.0345239 0.00191372 0)
(-0.0463263 0.00248913 0)
(-0.0587835 0.00303972 0)
(-0.0711671 0.0034757 0)
(-0.0825835 0.00369249 0)
(-0.0920434 0.00359159 0)
(-0.098564 0.00310772 0)
(-0.10128 0.0022351 0)
(-0.0995164 0.00103178 0)
(-0.0930053 -0.000371505 0)
(-0.0818195 -0.00180914 0)
(-0.0664261 -0.00310753 0)
(-0.0476814 -0.00409972 0)
(-0.026804 -0.00464077 0)
(-0.00527644 -0.00460806 0)
(0.0153755 -0.00393904 0)
(0.0336815 -0.00278824 0)
(0.0483344 -0.00137544 0)
(0.0583774 0.000121604 0)
(0.0634295 0.00149324 0)
(0.0637025 0.00253136 0)
(0.0600018 0.00310995 0)
(0.0534926 0.00322381 0)
(0.0454069 0.00298609 0)
(0.0368483 0.00254966 0)
(0.0286542 0.00204897 0)
(0.0213449 0.00157469 0)
(0.0151505 0.00117457 0)
(0.0100823 0.000863717 0)
(0.00603071 0.000631491 0)
(0.0029022 0.000436236 0)
(0.000795843 0.000192967 0)
(-8.19259e-05 -8.732e-05 0)
(0.000565221 -0.00182235 0)
(0.00437221 -0.00432012 0)
(0.00958044 -0.0051187 0)
(0.0146028 -0.00444133 0)
(0.0181603 -0.00299839 0)
(0.0197667 -0.00145757 0)
(0.0194605 -0.000192093 0)
(0.0174529 0.000766166 0)
(0.0138289 0.00162611 0)
(0.00839952 0.00266652 0)
(0.000727598 0.00410468 0)
(-0.00974325 0.00604652 0)
(-0.0235422 0.0084962 0)
(-0.0410318 0.0113866 0)
(-0.062292 0.0145794 0)
(-0.0870155 0.0178488 0)
(-0.114444 0.0208743 0)
(-0.143383 0.0232636 0)
(-0.17231 0.0246078 0)
(-0.199544 0.0245497 0)
(-0.223428 0.0228423 0)
(-0.242483 0.0193861 0)
(-0.255508 0.0142451 0)
(-0.261649 0.00765159 0)
(-0.260429 -4.37049e-06 0)
(-0.251782 -0.00820683 0)
(-0.235901 -0.0163852 0)
(-0.213234 -0.0239858 0)
(-0.184549 -0.0304457 0)
(-0.150932 -0.0352311 0)
(-0.113793 -0.0378791 0)
(-0.0748303 -0.0380462 0)
(-0.0359532 -0.0355875 0)
(0.000903735 -0.0306853 0)
(0.033895 -0.0238379 0)
(0.0613433 -0.0157711 0)
(0.0819312 -0.0073061 0)
(0.0949361 0.000674536 0)
(0.100223 0.0073273 0)
(0.0984046 0.0120695 0)
(0.0909353 0.0147032 0)
(0.079601 0.0154295 0)
(0.0662278 0.0147129 0)
(0.0524142 0.013107 0)
(0.0393386 0.0111176 0)
(0.0276961 0.00911122 0)
(0.0177755 0.00724987 0)
(0.00968373 0.00543572 0)
(0.00372703 0.00334414 0)
(0.000329424 0.000918985 0)
(0.000785667 -0.00449748 0)
(0.00568743 -0.00969809 0)
(0.0117165 -0.0109188 0)
(0.0169046 -0.00900599 0)
(0.0197609 -0.00542321 0)
(0.0197084 -0.0014683 0)
(0.0166646 0.00215466 0)
(0.0106272 0.00542595 0)
(0.00137073 0.00878488 0)
(-0.011637 0.0127979 0)
(-0.0291092 0.0178511 0)
(-0.0516733 0.0240213 0)
(-0.0796348 0.031097 0)
(-0.112764 0.0386144 0)
(-0.150185 0.0458929 0)
(-0.190423 0.0521136 0)
(-0.231589 0.0564528 0)
(-0.271646 0.0582245 0)
(-0.308671 0.0569824 0)
(-0.341038 0.0525605 0)
(-0.36751 0.0450584 0)
(-0.387243 0.0347916 0)
(-0.399723 0.0222331 0)
(-0.404691 0.00796258 0)
(-0.402072 -0.00736999 0)
(-0.391842 -0.0230818 0)
(-0.37404 -0.0384618 0)
(-0.348932 -0.0527226 0)
(-0.317005 -0.0650291 0)
(-0.279026 -0.0745412 0)
(-0.236084 -0.0804855 0)
(-0.189616 -0.0822531 0)
(-0.14138 -0.0795123 0)
(-0.0933828 -0.0723174 0)
(-0.0477344 -0.061216 0)
(-0.00642966 -0.0472136 0)
(0.0288077 -0.0316011 0)
(0.0566185 -0.0158264 0)
(0.0763106 -0.00117949 0)
(0.0876113 0.0111428 0)
(0.0907814 0.0202322 0)
(0.0870741 0.0257245 0)
(0.0781942 0.0278513 0)
(0.0660316 0.0273016 0)
(0.0523866 0.0249742 0)
(0.0387205 0.0217246 0)
(0.0260342 0.0181232 0)
(0.0149685 0.0142407 0)
(0.00625692 0.00958457 0)
(0.000705302 0.00358762 0)
(0.00091765 -0.00772847 0)
(0.00606762 -0.0155947 0)
(0.0115443 -0.0165387 0)
(0.0151602 -0.0124506 0)
(0.0154121 -0.00573097 0)
(0.0117412 0.00170354 0)
(0.00392271 0.00894782 0)
(-0.00839252 0.0161108 0)
(-0.02587 0.0239554 0)
(-0.0493253 0.0332327 0)
(-0.0793957 0.0442224 0)
(-0.116178 0.0565829 0)
(-0.159004 0.0694381 0)
(-0.206419 0.081565 0)
(-0.256383 0.0916343 0)
(-0.306612 0.0984601 0)
(-0.354933 0.101195 0)
(-0.399537 0.0994185 0)
(-0.439092 0.0931162 0)
(-0.472721 0.0825892 0)
(-0.4999 0.0683396 0)
(-0.520334 0.0509663 0)
(-0.533826 0.0310967 0)
(-0.540213 0.00936572 0)
(-0.539338 -0.0135633 0)
(-0.531016 -0.0369596 0)
(-0.515117 -0.0599785 0)
(-0.491614 -0.0816557 0)
(-0.460616 -0.100923 0)
(-0.422438 -0.11664 0)
(-0.377702 -0.127672 0)
(-0.327422 -0.133017 0)
(-0.273068 -0.131978 0)
(-0.216577 -0.124352 0)
(-0.16026 -0.110571 0)
(-0.106602 -0.0917455 0)
(-0.0579506 -0.0695737 0)
(-0.0161776 -0.0460595 0)
(0.0175229 -0.0231178 0)
(0.0425598 -0.00249204 0)
(0.0588715 0.0145808 0)
(0.0667169 0.0271768 0)
(0.0672071 0.0349204 0)
(0.0618972 0.0381527 0)
(0.0525766 0.0377774 0)
(0.0410368 0.0349298 0)
(0.028829 0.0305675 0)
(0.0171887 0.0250326 0)
(0.00742102 0.0177414 0)
(0.000862085 0.00736688 0)
(0.000999701 -0.0110192 0)
(0.00560969 -0.0208287 0)
(0.00922556 -0.0203472 0)
(0.00967172 -0.0128983 0)
(0.00561006 -0.0019301 0)
(-0.00347841 0.0101347 0)
(-0.0180587 0.0223961 0)
(-0.0388866 0.0352979 0)
(-0.0668961 0.04978 0)
(-0.102739 0.0663677 0)
(-0.146312 0.0846877 0)
(-0.196539 0.103508 0)
(-0.251479 0.121099 0)
(-0.308686 0.135664 0)
(-0.365651 0.14572 0)
(-0.420197 0.150314 0)
(-0.47068 0.149082 0)
(-0.516015 0.142149 0)
(-0.555574 0.129968 0)
(-0.589032 0.11316 0)
(-0.616233 0.0924005 0)
(-0.637094 0.0683473 0)
(-0.651547 0.041633 0)
(-0.659515 0.0128869 0)
(-0.660898 -0.0172352 0)
(-0.655559 -0.0480086 0)
(-0.643284 -0.078577 0)
(-0.623799 -0.107927 0)
(-0.596811 -0.13488 0)
(-0.562086 -0.158083 0)
(-0.519577 -0.176058 0)
(-0.469577 -0.187336 0)
(-0.412894 -0.190666 0)
(-0.351003 -0.185275 0)
(-0.286111 -0.171143 0)
(-0.221055 -0.149195 0)
(-0.158998 -0.121326 0)
(-0.102944 -0.0901389 0)
(-0.0551826 -0.0584863 0)
(-0.016903 -0.0288871 0)
(0.0117681 -0.00311803 0)
(0.0312111 0.0176186 0)
(0.0419792 0.0326526 0)
(0.045276 0.0418293 0)
(0.042621 0.0456867 0)
(0.0357403 0.0452929 0)
(0.0263968 0.041757 0)
(0.0162492 0.0355996 0)
(0.00710919 0.0261582 0)
(0.000796402 0.0113837 0)
(0.000995573 -0.0139234 0)
(0.00415978 -0.0242935 0)
(0.00457578 -0.0208743 0)
(0.000386718 -0.00871908 0)
(-0.00948043 0.00766999 0)
(-0.0255884 0.0256117 0)
(-0.0486805 0.044505 0)
(-0.0797371 0.0650232 0)
(-0.119472 0.0878223 0)
(-0.1677 0.112588 0)
(-0.223076 0.137864 0)
(-0.283295 0.161496 0)
(-0.34559 0.181265 0)
(-0.407267 0.195392 0)
(-0.466105 0.202808 0)
(-0.520522 0.203169 0)
(-0.569545 0.196699 0)
(-0.612665 0.183978 0)
(-0.649689 0.165748 0)
(-0.680622 0.142795 0)
(-0.705589 0.115873 0)
(-0.724786 0.08568 0)
(-0.738438 0.0528642 0)
(-0.746739 0.0180383 0)
(-0.749796 -0.0182096 0)
(-0.74761 -0.0552675 0)
(-0.739985 -0.0924241 0)
(-0.726484 -0.128801 0)
(-0.706487 -0.163294 0)
(-0.679231 -0.194515 0)
(-0.643923 -0.220791 0)
(-0.599912 -0.240258 0)
(-0.54695 -0.251032 0)
(-0.485489 -0.251506 0)
(-0.416944 -0.240752 0)
(-0.343846 -0.218929 0)
(-0.269767 -0.187551 0)
(-0.198897 -0.149469 0)
(-0.135289 -0.108452 0)
(-0.081947 -0.0683794 0)
(-0.0401624 -0.0323735 0)
(-0.00956098 -0.00229893 0)
(0.0110239 0.0211116 0)
(0.0227834 0.037577 0)
(0.0271457 0.0473128 0)
(0.0257743 0.0511004 0)
(0.0204596 0.0499337 0)
(0.013075 0.0443175 0)
(0.00574804 0.0334768 0)
(0.000590868 0.0148942 0)
(0.000839545 -0.0158635 0)
(0.0014809 -0.0247659 0)
(-0.00260272 -0.0166863 0)
(-0.0126979 0.00146187 0)
(-0.0295892 0.0244201 0)
(-0.0539512 0.0495919 0)
(-0.0866836 0.0766688 0)
(-0.128545 0.106114 0)
(-0.179409 0.137679 0)
(-0.237845 0.169815 0)
(-0.301325 0.200042 0)
(-0.366816 0.225726 0)
(-0.431404 0.244752 0)
(-0.492725 0.255861 0)
(-0.549124 0.258659 0)
(-0.599606 0.25343 0)
(-0.643695 0.240881 0)
(-0.681292 0.221919 0)
(-0.712579 0.197519 0)
(-0.737947 0.168634 0)
(-0.75792 0.136125 0)
(-0.773089 0.100746 0)
(-0.784032 0.0631318 0)
(-0.791229 0.0238027 0)
(-0.795005 -0.0168023 0)
(-0.795511 -0.0582738 0)
(-0.792654 -0.100175 0)
(-0.785984 -0.141918 0)
(-0.774757 -0.18266 0)
(-0.757895 -0.221211 0)
(-0.734037 -0.255975 0)
(-0.701672 -0.284929 0)
(-0.65939 -0.305704 0)
(-0.606231 -0.31585 0)
(-0.542112 -0.313264 0)
(-0.468294 -0.296728 0)
(-0.387682 -0.26649 0)
(-0.304771 -0.224688 0)
(-0.22509 -0.175343 0)
(-0.15411 -0.123688 0)
(-0.0958338 -0.0749171 0)
(-0.0517245 -0.0328241 0)
(-0.0207696 0.000834672 0)
(-0.00076138 0.0259217 0)
(0.010296 0.0427694 0)
(0.0143052 0.0519994 0)
(0.0132019 0.0544083 0)
(0.00900991 0.0503492 0)
(0.00399946 0.0389247 0)
(0.000362097 0.0174917 0)
(0.00046453 -0.0160945 0)
(-0.0025773 -0.0209658 0)
(-0.0122932 -0.00660561 0)
(-0.0292468 0.0186746 0)
(-0.0539685 0.0492917 0)
(-0.0872097 0.0829016 0)
(-0.129694 0.119152 0)
(-0.181428 0.157694 0)
(-0.241088 0.196975 0)
(-0.306083 0.234284 0)
(-0.373177 0.266571 0)
(-0.439202 0.291298 0)
(-0.501553 0.306904 0)
(-0.558389 0.312855 0)
(-0.608597 0.30944 0)
(-0.651671 0.297497 0)
(-0.687586 0.27815 0)
(-0.716703 0.252644 0)
(-0.739674 0.222213 0)
(-0.757343 0.187984 0)
(-0.770636 0.150906 0)
(-0.780455 0.111724 0)
(-0.787601 0.070977 0)
(-0.792709 0.029027 0)
(-0.796242 -0.0138844 0)
(-0.798463 -0.0575924 0)
(-0.799407 -0.101964 0)
(-0.798772 -0.146756 0)
(-0.795938 -0.191511 0)
(-0.789855 -0.23545 0)
(-0.779016 -0.277333 0)
(-0.761479 -0.315326 0)
(-0.734983 -0.346981 0)
(-0.697225 -0.369346 0)
(-0.646356 -0.379258 0)
(-0.581631 -0.37388 0)
(-0.504071 -0.35149 0)
(-0.416949 -0.312338 0)
(-0.325834 -0.259258 0)
(-0.237885 -0.197672 0)
(-0.1603 -0.134655 0)
(-0.0982611 -0.0770527 0)
(-0.0533327 -0.0294149 0)
(-0.0235933 0.00683846 0)
(-0.0055714 0.032425 0)
(0.00360666 0.048276 0)
(0.0064531 0.0552358 0)
(0.00528643 0.0535796 0)
(0.00248643 0.0423716 0)
(0.000209143 0.0191553 0)
(-0.000172609 -0.0137821 0)
(-0.00796994 -0.0118197 0)
(-0.0241302 0.0102175 0)
(-0.0484508 0.0435242 0)
(-0.0812495 0.0826628 0)
(-0.123162 0.125415 0)
(-0.174325 0.170852 0)
(-0.233666 0.217373 0)
(-0.298716 0.262127 0)
(-0.366141 0.301661 0)
(-0.43252 0.332914 0)
(-0.494946 0.353876 0)
(-0.551307 0.363742 0)
(-0.600302 0.362736 0)
(-0.641352 0.351805 0)
(-0.67449 0.332325 0)
(-0.700245 0.305869 0)
(-0.719524 0.274026 0)
(-0.733457 0.238253 0)
(-0.74324 0.199763 0)
(-0.750008 0.159476 0)
(-0.754751 0.118022 0)
(-0.758268 0.0757714 0)
(-0.761161 0.0328975 0)
(-0.76388 -0.0105588 0)
(-0.766725 -0.0546403 0)
(-0.769823 -0.0994368 0)
(-0.773099 -0.144999 0)
(-0.776229 -0.191257 0)
(-0.778526 -0.237909 0)
(-0.778822 -0.284249 0)
(-0.775336 -0.328998 0)
(-0.765606 -0.370142 0)
(-0.746605 -0.404806 0)
(-0.715089 -0.429306 0)
(-0.668212 -0.439532 0)
(-0.60439 -0.431695 0)
(-0.524291 -0.403381 0)
(-0.431604 -0.35474 0)
(-0.333156 -0.289416 0)
(-0.237987 -0.21462 0)
(-0.155238 -0.139763 0)
(-0.0912655 -0.073667 0)
(-0.0474162 -0.0215692 0)
(-0.0204397 0.0157775 0)
(-0.00547971 0.0400939 0)
(0.00119996 0.0527641 0)
(0.00267129 0.0543768 0)
(0.00160502 0.0441952 0)
(0.000183871 0.0201657 0)
(-0.00107347 -0.00815852 0)
(-0.0144207 0.00342121 0)
(-0.0373761 0.0341617 0)
(-0.069055 0.0760671 0)
(-0.109513 0.124157 0)
(-0.159003 0.175971 0)
(-0.21678 0.229535 0)
(-0.280686 0.281889 0)
(-0.347445 0.329219 0)
(-0.413445 0.367859 0)
(-0.475458 0.395178 0)
(-0.531042 0.40993 0)
(-0.578649 0.412153 0)
(-0.617584 0.402846 0)
(-0.647904 0.383635 0)
(-0.670295 0.356465 0)
(-0.685904 0.323336 0)
(-0.696128 0.286085 0)
(-0.702401 0.246235 0)
(-0.706025 0.204912 0)
(-0.708076 0.162856 0)
(-0.70938 0.120484 0)
(-0.710526 0.0779613 0)
(-0.711914 0.0352829 0)
(-0.713849 -0.00765658 0)
(-0.716584 -0.0510116 0)
(-0.720261 -0.0949729 0)
(-0.724988 -0.139748 0)
(-0.730776 -0.185513 0)
(-0.737442 -0.23234 0)
(-0.744448 -0.280082 0)
(-0.750675 -0.328206 0)
(-0.754215 -0.375515 0)
(-0.752237 -0.419831 0)
(-0.741015 -0.457791 0)
(-0.716278 -0.48488 0)
(-0.674024 -0.49584 0)
(-0.61172 -0.485626 0)
(-0.529657 -0.450886 0)
(-0.432026 -0.391688 0)
(-0.327146 -0.312828 0)
(-0.226237 -0.223889 0)
(-0.140493 -0.137224 0)
(-0.0771309 -0.0638588 0)
(-0.0366024 -0.00934029 0)
(-0.0137891 0.0267813 0)
(-0.00263141 0.0471315 0)
(0.0013009 0.0532382 0)
(0.00144607 0.0450114 0)
(0.000288165 0.020943 0)
(-0.00218062 0.00132295 0)
(-0.021431 0.0250442 0)
(-0.0510289 0.065088 0)
(-0.0895096 0.115771 0)
(-0.136559 0.172639 0)
(-0.191817 0.232583 0)
(-0.253587 0.292348 0)
(-0.318861 0.34781 0)
(-0.38397 0.394662 0)
(-0.445396 0.429487 0)
(-0.500334 0.450379 0)
(-0.546929 0.456997 0)
(-0.5843 0.45028 0)
(-0.612476 0.432057 0)
(-0.632256 0.404654 0)
(-0.645004 0.370534 0)
(-0.652368 0.331975 0)
(-0.656011 0.290851 0)
(-0.657382 0.24852 0)
(-0.657609 0.205839 0)
(-0.657479 0.163251 0)
(-0.657486 0.120909 0)
(-0.657907 0.0787845 0)
(-0.65888 0.0367474 0)
(-0.660514 -0.00536932 0)
(-0.662958 -0.047738 0)
(-0.666312 -0.0905405 0)
(-0.670755 -0.13398 0)
(-0.676513 -0.178284 0)
(-0.683791 -0.223705 0)
(-0.69265 -0.270485 0)
(-0.702817 -0.318728 0)
(-0.713414 -0.368138 0)
(-0.722607 -0.417665 0)
(-0.727298 -0.465063 0)
(-0.723066 -0.506495 0)
(-0.704578 -0.536415 0)
(-0.666584 -0.548086 0)
(-0.605495 -0.534903 0)
(-0.52125 -0.492449 0)
(-0.418806 -0.42088 0)
(-0.308394 -0.326745 0)
(-0.203737 -0.222924 0)
(-0.117986 -0.125438 0)
(-0.0584664 -0.0474103 0)
(-0.0236524 0.00621573 0)
(-0.00619466 0.0377404 0)
(0.000676658 0.0503758 0)
(0.001809 0.0453459 0)
(0.000485739 0.0218702 0)
(-0.0033587 0.0148953 0)
(-0.0283538 0.0528472 0)
(-0.063969 0.102371 0)
(-0.108206 0.161549 0)
(-0.16027 0.226388 0)
(-0.219088 0.292826 0)
(-0.282135 0.356352 0)
(-0.345897 0.412042 0)
(-0.40667 0.455562 0)
(-0.46129 0.484093 0)
(-0.507529 0.496653 0)
(-0.544235 0.493914 0)
(-0.571311 0.477792 0)
(-0.589588 0.450963 0)
(-0.600589 0.416383 0)
(-0.60619 0.37684 0)
(-0.608272 0.334632 0)
(-0.608442 0.291397 0)
(-0.607882 0.248127 0)
(-0.607341 0.205285 0)
(-0.607209 0.162984 0)
(-0.607626 0.121139 0)
(-0.608589 0.0795846 0)
(-0.610033 0.0381422 0)
(-0.611916 -0.00334862 0)
(-0.614284 -0.0450171 0)
(-0.617187 -0.0869715 0)
(-0.620771 -0.129318 0)
(-0.625289 -0.172209 0)
(-0.631077 -0.215883 0)
(-0.638526 -0.260681 0)
(-0.647992 -0.307019 0)
(-0.659572 -0.355267 0)
(-0.672735 -0.405486 0)
(-0.685829 -0.456917 0)
(-0.695612 -0.507286 0)
(-0.697027 -0.552163 0)
(-0.683581 -0.584745 0)
(-0.648636 -0.596474 0)
(-0.587547 -0.578828 0)
(-0.500146 -0.526251 0)
(-0.392644 -0.439509 0)
(-0.277777 -0.328031 0)
(-0.17211 -0.20929 0)
(-0.0902995 -0.103595 0)
(-0.0383292 -0.0252997 0)
(-0.0113431 0.0228859 0)
(-0.000158035 0.0453498 0)
(0.00229573 0.0453428 0)
(0.000720479 0.0231521 0)
(-0.00444377 0.0324058 0)
(-0.0345367 0.086165 0)
(-0.0751394 0.144952 0)
(-0.123717 0.211897 0)
(-0.178932 0.283366 0)
(-0.239032 0.354225 0)
(-0.300908 0.418917 0)
(-0.36087 0.472136 0)
(-0.415455 0.50991 0)
(-0.462026 0.530281 0)
(-0.499055 0.533341 0)
(-0.526191 0.520873 0)
(-0.54417 0.495794 0)
(-0.554576 0.461545 0)
(-0.559455 0.421492 0)
(-0.560897 0.378457 0)
(-0.560676 0.334449 0)
(-0.560056 0.290652 0)
(-0.559778 0.247573 0)
(-0.560149 0.205276 0)
(-0.5612 0.163599 0)
(-0.562818 0.122312 0)
(-0.564845 0.0811986 0)
(-0.567127 0.0400926 0)
(-0.569562 -0.00112047 0)
(-0.572146 -0.0425063 0)
(-0.574902 -0.0840947 0)
(-0.577892 -0.1259 0)
(-0.581276 -0.167968 0)
(-0.585316 -0.210409 0)
(-0.590414 -0.253448 0)
(-0.597118 -0.29748 0)
(-0.60604 -0.343106 0)
(-0.617652 -0.391038 0)
(-0.631854 -0.44176 0)
(-0.647309 -0.494856 0)
(-0.660681 -0.548054 0)
(-0.666208 -0.596213 0)
(-0.656132 -0.630879 0)
(-0.622363 -0.641139 0)
(-0.559313 -0.616241 0)
(-0.467182 -0.549751 0)
(-0.354271 -0.444105 0)
(-0.236654 -0.313375 0)
(-0.133889 -0.181278 0)
(-0.0609113 -0.0724478 0)
(-0.0200624 -0.000224302 0)
(-0.0022727 0.036924 0)
(0.00246795 0.0446167 0)
(0.000939767 0.0247492 0)
(-0.00528757 0.0532921 0)
(-0.0394189 0.123939 0)
(-0.0836827 0.19146 0)
(-0.134977 0.26508 0)
(-0.191426 0.341496 0)
(-0.250728 0.414553 0)
(-0.309468 0.477958 0)
(-0.364051 0.526416 0)
(-0.411446 0.556628 0)
(-0.449666 0.567693 0)
(-0.477962 0.560901 0)
(-0.496812 0.539181 0)
(-0.507712 0.506373 0)
(-0.512788 0.466461 0)
(-0.514302 0.422907 0)
(-0.514213 0.37823 0)
(-0.513906 0.333915 0)
(-0.514156 0.290574 0)
(-0.51523 0.248247 0)
(-0.51708 0.206694 0)
(-0.519514 0.1656 0)
(-0.522315 0.124697 0)
(-0.525302 0.0837949 0)
(-0.528333 0.0427762 0)
(-0.531321 0.00158102 0)
(-0.534269 -0.0398058 0)
(-0.537198 -0.0813692 0)
(-0.540099 -0.123082 0)
(-0.543027 -0.164913 0)
(-0.546096 -0.206852 0)
(-0.549531 -0.24895 0)
(-0.553728 -0.291405 0)
(-0.559304 -0.334665 0)
(-0.567093 -0.379506 0)
(-0.577956 -0.426983 0)
(-0.592257 -0.478078 0)
(-0.608991 -0.532815 0)
(-0.624717 -0.588847 0)
(-0.632868 -0.639974 0)
(-0.624217 -0.675516 0)
(-0.589151 -0.681611 0)
(-0.521518 -0.645069 0)
(-0.422806 -0.559317 0)
(-0.304627 -0.430446 0)
(-0.187275 -0.279815 0)
(-0.0928364 -0.138963 0)
(-0.0339655 -0.0352065 0)
(-0.00650725 0.023153 0)
(0.00201022 0.0422977 0)
(0.00111613 0.0264113 0)
(-0.00576883 0.0766481 0)
(-0.0425885 0.164835 0)
(-0.0890258 0.240347 0)
(-0.141371 0.319324 0)
(-0.197271 0.39888 0)
(-0.254062 0.472013 0)
(-0.308269 0.532031 0)
(-0.356595 0.573986 0)
(-0.396569 0.595495 0)
(-0.426919 0.596858 0)
(-0.447682 0.580623 0)
(-0.460087 0.550807 0)
(-0.466191 0.51197 0)
(-0.468362 0.468318 0)
(-0.468746 0.423058 0)
(-0.468901 0.378149 0)
(-0.469694 0.334428 0)
(-0.471407 0.291966 0)
(-0.473951 0.250454 0)
(-0.477074 0.209493 0)
(-0.480518 0.168748 0)
(-0.484085 0.127996 0)
(-0.487651 0.087112 0)
(-0.49114 0.0460372 0)
(-0.494515 0.00475338 0)
(-0.497808 -0.0367308 0)
(-0.501048 -0.0783917 0)
(-0.504202 -0.120202 0)
(-0.507261 -0.162109 0)
(-0.510224 -0.204046 0)
(-0.513129 -0.245955 0)
(-0.516113 -0.287831 0)
(-0.519516 -0.329827 0)
(-0.523987 -0.372407 0)
(-0.530539 -0.416518 0)
(-0.540388 -0.463618 0)
(-0.554377 -0.515253 0)
(-0.571829 -0.571878 0)
(-0.589056 -0.630876 0)
(-0.598372 -0.684438 0)
(-0.588826 -0.718771 0)
(-0.549397 -0.716316 0)
(-0.474129 -0.661646 0)
(-0.367245 -0.549852 0)
(-0.245277 -0.393985 0)
(-0.133324 -0.226065 0)
(-0.0540379 -0.0858428 0)
(-0.013353 0.00162061 0)
(0.000770827 0.0372057 0)
(0.00125344 0.0277797 0)
(-0.00581212 0.10134 0)
(-0.0438134 0.207373 0)
(-0.0909057 0.290037 0)
(-0.142731 0.372982 0)
(-0.196562 0.453937 0)
(-0.249563 0.525306 0)
(-0.298399 0.580317 0)
(-0.340208 0.614639 0)
(-0.373139 0.626977 0)
(-0.396636 0.61892 0)
(-0.411451 0.594243 0)
(-0.419378 0.557885 0)
(-0.422766 0.514827 0)
(-0.423914 0.46915 0)
(-0.424599 0.423522 0)
(-0.425859 0.379201 0)
(-0.428055 0.3364 0)
(-0.431103 0.29478 0)
(-0.434722 0.253851 0)
(-0.438617 0.213195 0)
(-0.44257 0.172544 0)
(-0.446465 0.131759 0)
(-0.450261 0.0907889 0)
(-0.453946 0.0496182 0)
(-0.457525 0.0082492 0)
(-0.46106 -0.0333083 0)
(-0.464589 -0.0750404 0)
(-0.468087 -0.11694 0)
(-0.471525 -0.158972 0)
(-0.474855 -0.201078 0)
(-0.478014 -0.243171 0)
(-0.480954 -0.285143 0)
(-0.483717 -0.326922 0)
(-0.48656 -0.368599 0)
(-0.490127 -0.410654 0)
(-0.495588 -0.454225 0)
(-0.504529 -0.501224 0)
(-0.518254 -0.553847 0)
(-0.536284 -0.612946 0)
(-0.55437 -0.675178 0)
(-0.563257 -0.730106 0)
(-0.549969 -0.759599 0)
(-0.502463 -0.741811 0)
(-0.41643 -0.660193 0)
(-0.300989 -0.514966 0)
(-0.179282 -0.331181 0)
(-0.0805049 -0.154849 0)
(-0.0231581 -0.0304718 0)
(-0.00128372 0.0280093 0)
(0.00137107 0.0284773 0)
(-0.00539431 0.126126 0)
(-0.0430378 0.250046 0)
(-0.0893419 0.33904 0)
(-0.139268 0.42463 0)
(-0.189831 0.50546 0)
(-0.238193 0.573623 0)
(-0.281307 0.622541 0)
(-0.316815 0.6487 0)
(-0.34349 0.652 0)
(-0.361426 0.635325 0)
(-0.371932 0.60356 0)
(-0.377138 0.562311 0)
(-0.379401 0.516651 0)
(-0.380717 0.470235 0)
(-0.38237 0.425026 0)
(-0.384893 0.381584 0)
(-0.388269 0.339626 0)
(-0.392217 0.298577 0)
(-0.396412 0.257915 0)
(-0.400618 0.217298 0)
(-0.40471 0.176561 0)
(-0.408658 0.135653 0)
(-0.412487 0.0945715 0)
(-0.416227 0.0533255 0)
(-0.419901 0.0119187 0)
(-0.423583 -0.0296493 0)
(-0.427324 -0.0713788 0)
(-0.431106 -0.113286 0)
(-0.434908 -0.155365 0)
(-0.438687 -0.197592 0)
(-0.442361 -0.239907 0)
(-0.445817 -0.282199 0)
(-0.448929 -0.324316 0)
(-0.451641 -0.366114 0)
(-0.454121 -0.407615 0)
(-0.457013 -0.449318 0)
(-0.461659 -0.492612 0)
(-0.470025 -0.540003 0)
(-0.483842 -0.594434 0)
(-0.502596 -0.656921 0)
(-0.520906 -0.722518 0)
(-0.527256 -0.776586 0)
(-0.50651 -0.795106 0)
(-0.446718 -0.751933 0)
(-0.347606 -0.632426 0)
(-0.225912 -0.4481 0)
(-0.112312 -0.24253 0)
(-0.0363976 -0.0761193 0)
(-0.00422678 0.0132083 0)
(0.00146051 0.0280946 0)
(-0.00454016 0.149765 0)
(-0.0403545 0.291416 0)
(-0.0845771 0.386035 0)
(-0.131464 0.473124 0)
(-0.177889 0.552616 0)
(-0.221144 0.616579 0)
(-0.25856 0.658844 0)
(-0.288301 0.676843 0)
(-0.309712 0.67171 0)
(-0.323411 0.647549 0)
(-0.331069 0.610157 0)
(-0.334906 0.565522 0)
(-0.337067 0.518512 0)
(-0.339118 0.472159 0)
(-0.341853 0.427686 0)
(-0.345411 0.385059 0)
(-0.349557 0.343673 0)
(-0.353956 0.302878 0)
(-0.358342 0.262219 0)
(-0.362576 0.221473 0)
(-0.366623 0.180572 0)
(-0.37052 0.139524 0)
(-0.374325 0.0983548 0)
(-0.378083 0.0570754 0)
(-0.381819 0.01568 0)
(-0.385601 -0.025845 0)
(-0.389486 -0.0675116 0)
(-0.393468 -0.109354 0)
(-0.39753 -0.151389 0)
(-0.401651 -0.193627 0)
(-0.405775 -0.236049 0)
(-0.4098 -0.278595 0)
(-0.413572 -0.321138 0)
(-0.416897 -0.363476 0)
(-0.419632 -0.405383 0)
(-0.421872 -0.446814 0)
(-0.424281 -0.488333 0)
(-0.428431 -0.531717 0)
(-0.436731 -0.580262 0)
(-0.451241 -0.63774 0)
(-0.470924 -0.704801 0)
(-0.488378 -0.773242 0)
(-0.489087 -0.821835 0)
(-0.456159 -0.81924 0)
(-0.379985 -0.736849 0)
(-0.267889 -0.568338 0)
(-0.146892 -0.345939 0)
(-0.0533873 -0.137535 0)
(-0.00822382 -0.00882951 0)
(0.00147381 0.0261759 0)
(-0.00331236 0.171116 0)
(-0.0359659 0.330189 0)
(-0.0770043 0.429914 0)
(-0.119966 0.517605 0)
(-0.161679 0.594902 0)
(-0.199659 0.654116 0)
(-0.231656 0.689641 0)
(-0.256331 0.699916 0)
(-0.273502 0.68727 0)
(-0.284154 0.65689 0)
(-0.29011 0.615252 0)
(-0.293481 0.568451 0)
(-0.296065 0.520933 0)
(-0.298976 0.475028 0)
(-0.302604 0.431287 0)
(-0.306838 0.38924 0)
(-0.311365 0.348127 0)
(-0.315892 0.307332 0)
(-0.32025 0.266518 0)
(-0.324391 0.225573 0)
(-0.328347 0.184504 0)
(-0.332186 0.143347 0)
(-0.33598 0.102132 0)
(-0.339771 0.0608604 0)
(-0.343572 0.0195131 0)
(-0.347441 -0.0219359 0)
(-0.351441 -0.0635062 0)
(-0.355568 -0.105244 0)
(-0.359807 -0.14718 0)
(-0.364153 -0.189343 0)
(-0.368577 -0.231752 0)
(-0.373018 -0.274398 0)
(-0.377359 -0.317222 0)
(-0.381414 -0.360073 0)
(-0.384932 -0.402691 0)
(-0.387688 -0.44476 0)
(-0.389731 -0.486185 0)
(-0.39182 -0.527693 0)
(-0.395863 -0.571691 0)
(-0.404773 -0.62259 0)
(-0.420705 -0.684903 0)
(-0.441264 -0.75762 0)
(-0.455765 -0.826472 0)
(-0.44618 -0.860648 0)
(-0.395564 -0.82132 0)
(-0.300666 -0.683045 0)
(-0.180705 -0.459402 0)
(-0.0735814 -0.215071 0)
(-0.0135219 -0.0398884 0)
(0.00138928 0.0222406 0)
(-0.00179987 0.1892 0)
(-0.0301434 0.365247 0)
(-0.0670972 0.469792 0)
(-0.105484 0.557477 0)
(-0.142156 0.632079 0)
(-0.174907 0.686402 0)
(-0.20191 0.715493 0)
(-0.222258 0.71879 0)
(-0.236124 0.699722 0)
(-0.244687 0.664374 0)
(-0.249746 0.61967 0)
(-0.253159 0.571593 0)
(-0.256331 0.524047 0)
(-0.259975 0.478682 0)
(-0.2642 0.435506 0)
(-0.268775 0.393775 0)
(-0.273402 0.352693 0)
(-0.277872 0.311743 0)
(-0.28211 0.27071 0)
(-0.286135 0.22957 0)
(-0.290014 0.188367 0)
(-0.293822 0.147147 0)
(-0.297629 0.105928 0)
(-0.301471 0.0646974 0)
(-0.305347 0.0234239 0)
(-0.309302 -0.0179294 0)
(-0.313407 -0.059386 0)
(-0.317662 -0.101001 0)
(-0.322042 -0.142812 0)
(-0.326551 -0.18486 0)
(-0.331176 -0.227182 0)
(-0.335887 -0.269807 0)
(-0.340616 -0.312734 0)
(-0.345236 -0.355898 0)
(-0.349525 -0.399118 0)
(-0.353177 -0.442055 0)
(-0.355904 -0.484292 0)
(-0.357758 -0.52573 0)
(-0.359701 -0.56747 0)
(-0.364156 -0.612964 0)
(-0.374572 -0.668088 0)
(-0.392628 -0.737513 0)
(-0.413124 -0.815908 0)
(-0.420693 -0.878574 0)
(-0.39447 -0.882378 0)
(-0.321361 -0.784714 0)
(-0.210188 -0.575861 0)
(-0.0953809 -0.306691 0)
(-0.0203442 -0.0816428 0)
(0.00124909 0.0158051 0)
(-0.000106905 0.203239 0)
(-0.0231936 0.395668 0)
(-0.0553536 0.504996 0)
(-0.0887181 0.592362 0)
(-0.120208 0.664102 0)
(-0.147907 0.713736 0)
(-0.17039 0.736998 0)
(-0.187101 0.734261 0)
(-0.198437 0.709908 0)
(-0.205616 0.670733 0)
(-0.210276 0.623896 0)
(-0.213948 0.575128 0)
(-0.217656 0.527766 0)
(-0.221807 0.482867 0)
(-0.226341 0.440042 0)
(-0.231003 0.398403 0)
(-0.235558 0.3572 0)
(-0.239886 0.316028 0)
(-0.243982 0.274776 0)
(-0.247903 0.233477 0)
(-0.251726 0.192189 0)
(-0.255523 0.150948 0)
(-0.259354 0.109759 0)
(-0.26325 0.0685966 0)
(-0.267204 0.0274175 0)
(-0.27124 -0.0138237 0)
(-0.275448 -0.0551521 0)
(-0.279832 -0.0966331 0)
(-0.284351 -0.138308 0)
(-0.289012 -0.180222 0)
(-0.293807 -0.222424 0)
(-0.29872 -0.26496 0)
(-0.303718 -0.307869 0)
(-0.308726 -0.351156 0)
(-0.313597 -0.39474 0)
(-0.318073 -0.438384 0)
(-0.321788 -0.481642 0)
(-0.324413 -0.523996 0)
(-0.326089 -0.565464 0)
(-0.328176 -0.607904 0)
(-0.33382 -0.656458 0)
(-0.346828 -0.718667 0)
(-0.36719 -0.797444 0)
(-0.384835 -0.878097 0)
(-0.378964 -0.920015 0)
(-0.32903 -0.868241 0)
(-0.232581 -0.688314 0)
(-0.11663 -0.408407 0)
(-0.0286899 -0.13524 0)
(0.00111589 0.00635854 0)
(0.00165687 0.212676 0)
(-0.0154329 0.42072 0)
(-0.0422557 0.535037 0)
(-0.0703121 0.622053 0)
(-0.0966044 0.691048 0)
(-0.119493 0.736466 0)
(-0.137914 0.754717 0)
(-0.151574 0.74699 0)
(-0.160971 0.71846 0)
(-0.16724 0.676433 0)
(-0.171761 0.628158 0)
(-0.17572 0.579045 0)
(-0.179813 0.531906 0)
(-0.184233 0.487329 0)
(-0.188845 0.444658 0)
(-0.193426 0.40296 0)
(-0.197816 0.361559 0)
(-0.20197 0.320159 0)
(-0.205923 0.278723 0)
(-0.209752 0.237311 0)
(-0.213528 0.195981 0)
(-0.217314 0.154757 0)
(-0.221163 0.113625 0)
(-0.225104 0.0725536 0)
(-0.229125 0.0314898 0)
(-0.233235 -0.00962008 0)
(-0.237541 -0.0508013 0)
(-0.242059 -0.0921315 0)
(-0.246729 -0.133656 0)
(-0.251557 -0.175424 0)
(-0.256532 -0.217489 0)
(-0.261645 -0.259906 0)
(-0.266876 -0.302733 0)
(-0.272184 -0.346017 0)
(-0.277482 -0.389762 0)
(-0.282593 -0.433851 0)
(-0.287212 -0.477952 0)
(-0.290913 -0.521476 0)
(-0.29337 -0.563833 0)
(-0.294962 -0.605444 0)
(-0.297729 -0.649636 0)
(-0.305712 -0.704051 0)
(-0.322366 -0.777166 0)
(-0.343712 -0.865461 0)
(-0.352582 -0.936975 0)
(-0.324474 -0.931246 0)
(-0.246372 -0.790892 0)
(-0.135281 -0.515173 0)
(-0.0381715 -0.200454 0)
(0.000967332 -0.00656783 0)
(0.00338555 0.217202 0)
(-0.00717027 0.439818 0)
(-0.0282521 0.559569 0)
(-0.0508289 0.646462 0)
(-0.071985 0.713062 0)
(-0.0903154 0.754937 0)
(-0.10507 0.769126 0)
(-0.116136 0.757488 0)
(-0.124011 0.725806 0)
(-0.129652 0.681738 0)
(-0.134135 0.632518 0)
(-0.138308 0.583235 0)
(-0.142609 0.536267 0)
(-0.147093 0.491857 0)
(-0.151616 0.449193 0)
(-0.15601 0.407347 0)
(-0.160187 0.36573 0)
(-0.164152 0.324129 0)
(-0.167964 0.282553 0)
(-0.171698 0.241074 0)
(-0.17542 0.199742 0)
(-0.17918 0.158561 0)
(-0.183027 0.117511 0)
(-0.186995 0.0765525 0)
(-0.19107 0.0356284 0)
(-0.195237 -0.0053237 0)
(-0.199632 -0.0463319 0)
(-0.204291 -0.0874864 0)
(-0.209126 -0.128839 0)
(-0.21414 -0.170444 0)
(-0.219324 -0.212355 0)
(-0.224664 -0.254632 0)
(-0.230146 -0.297342 0)
(-0.235744 -0.340556 0)
(-0.241406 -0.384328 0)
(-0.247022 -0.428642 0)
(-0.252373 -0.473307 0)
(-0.257092 -0.517843 0)
(-0.260702 -0.561482 0)
(-0.262973 -0.603719 0)
(-0.264782 -0.645974 0)
(-0.269222 -0.694191 0)
(-0.281075 -0.75905 0)
(-0.301518 -0.846633 0)
(-0.319284 -0.937647 0)
(-0.309733 -0.973787 0)
(-0.251318 -0.879472 0)
(-0.149853 -0.621858 0)
(-0.0480585 -0.275524 0)
(0.000663204 -0.0234183 0)
(0.00493766 0.216628 0)
(0.00128918 0.45262 0)
(-0.0137419 0.578336 0)
(-0.0307492 0.665577 0)
(-0.0468625 0.730312 0)
(-0.0608608 0.76945 0)
(-0.0722586 0.780596 0)
(-0.0810555 0.766113 0)
(-0.0876741 0.732213 0)
(-0.0928304 0.686767 0)
(-0.0972751 0.636945 0)
(-0.101552 0.58756 0)
(-0.105895 0.540671 0)
(-0.110287 0.496292 0)
(-0.114604 0.453536 0)
(-0.118745 0.411507 0)
(-0.122679 0.36969 0)
(-0.126442 0.327929 0)
(-0.130101 0.286261 0)
(-0.133725 0.244755 0)
(-0.137372 0.203451 0)
(-0.141085 0.162341 0)
(-0.144907 0.121395 0)
(-0.14888 0.0805727 0)
(-0.152992 0.0398183 0)
(-0.157198 -0.000938913 0)
(-0.161668 -0.0417444 0)
(-0.166469 -0.0826879 0)
(-0.171481 -0.123839 0)
(-0.176703 -0.165253 0)
(-0.182122 -0.206988 0)
(-0.187725 -0.249102 0)
(-0.193498 -0.291668 0)
(-0.199419 -0.334769 0)
(-0.205454 -0.378489 0)
(-0.211531 -0.422879 0)
(-0.217503 -0.467867 0)
(-0.223094 -0.51313 0)
(-0.227864 -0.557969 0)
(-0.231332 -0.601473 0)
(-0.233549 -0.643635 0)
(-0.236304 -0.688065 0)
(-0.244036 -0.744831 0)
(-0.26112 -0.826287 0)
(-0.282729 -0.926973 0)
(-0.287463 -0.99779 0)
(-0.248183 -0.951811 0)
(-0.159606 -0.723972 0)
(-0.0575165 -0.357692 0)
(-5.3779e-06 -0.0446177 0)
(0.00615845 0.211184 0)
(0.00958244 0.458685 0)
(0.000950329 0.591247 0)
(-0.010473 0.679407 0)
(-0.0216431 0.742948 0)
(-0.0314849 0.780234 0)
(-0.03974 0.789384 0)
(-0.04647 0.773091 0)
(-0.0519717 0.737819 0)
(-0.0566888 0.691545 0)
(-0.0610459 0.641362 0)
(-0.0653124 0.591887 0)
(-0.069564 0.544976 0)
(-0.073748 0.500522 0)
(-0.0777819 0.457615 0)
(-0.081623 0.415401 0)
(-0.0852862 0.373416 0)
(-0.0888262 0.331543 0)
(-0.0923101 0.289826 0)
(-0.0957998 0.248331 0)
(-0.0993447 0.207084 0)