/*--------------------------------*- C++ -*----------------------------------*\
  =========                 |
  \\      /  F ield         | OpenFOAM: The Open Source CFD Toolbox
   \\    /   O peration     | Website:  https://openfoam.org
    \\  /    A nd           | Version:  7
     \\/     M anipulation  |
\*---------------------------------------------------------------------------*/
FoamFile
{
    version     2.0;
    format      ascii;
    class       volScalarField;
    location    "150";
    object      p;
}
// * * * * * * * * * * * * * * * * * * * * * * * * * * * * * * * * * * * * * //

dimensions      [0 2 -2 0 0 0 0];

internalField   nonuniform List<scalar> 
2500
(
1.08674e-05
-6.39998e-05
-0.00037724
-0.000918538
-0.00162291
-0.00244236
-0.00334561
-0.00431224
-0.00532821
-0.00638176
-0.00746013
-0.00854724
-0.00962243
-0.01066
-0.0116295
-0.0124963
-0.0132235
-0.0137732
-0.0141097
-0.0142019
-0.014027
-0.0135736
-0.0128452
-0.0118627
-0.0106661
-0.00931457
-0.00788473
-0.00646776
-0.00516395
-0.00407572
-0.00329958
-0.00291779
-0.00299056
-0.00354992
-0.00459601
-0.00609639
-0.00798851
-0.0101854
-0.0125836
-0.0150717
-0.0175388
-0.0198823
-0.0220132
-0.0238588
-0.0253631
-0.0264865
-0.0272062
-0.0275181
-0.0274576
-0.0272132
0.000107908
1.7206e-05
-0.000270747
-0.000755114
-0.0013841
-0.00211946
-0.0029362
-0.00381747
-0.00475108
-0.00572645
-0.006732
-0.00775329
-0.00877191
-0.00976498
-0.0107052
-0.0115615
-0.0123
-0.0128858
-0.013285
-0.0134677
-0.0134105
-0.0131006
-0.012538
-0.0117391
-0.0107381
-0.00958754
-0.00835669
-0.00712948
-0.00599916
-0.0050617
-0.00440808
-0.00411613
-0.00424287
-0.00481849
-0.00584266
-0.00728395
-0.00908244
-0.0111551
-0.0134035
-0.0157234
-0.018012
-0.0201758
-0.0221355
-0.0238289
-0.0252101
-0.0262494
-0.0269314
-0.02725
-0.0272127
-0.0269676
0.000437482
0.000295866
-6.40889e-06
-0.000462563
-0.00103597
-0.00170034
-0.00243894
-0.00324072
-0.00409755
-0.0050019
-0.00594486
-0.00691467
-0.00789582
-0.00886843
-0.00980823
-0.0106868
-0.0114724
-0.0121313
-0.0126296
-0.0129357
-0.0130238
-0.0128766
-0.0124892
-0.0118719
-0.0110525
-0.0100777
-0.00901115
-0.00793197
-0.00692969
-0.00609761
-0.00552512
-0.00528932
-0.00544717
-0.00602915
-0.00703535
-0.00843487
-0.0101684
-0.0121542
-0.0142957
-0.0164914
-0.0186434
-0.0206643
-0.0224827
-0.0240454
-0.025317
-0.0262771
-0.0269172
-0.0272272
-0.0271839
-0.0269102
0.00101626
0.000781042
0.000418795
-4.77928e-05
-0.000599738
-0.00122355
-0.00191169
-0.00266053
-0.00346793
-0.00433117
-0.00524544
-0.00620257
-0.00719022
-0.00819123
-0.00918331
-0.010139
-0.0110264
-0.0118098
-0.0124523
-0.0129177
-0.013174
-0.0131976
-0.0129766
-0.0125145
-0.0118334
-0.0109758
-0.0100025
-0.00899159
-0.00803332
-0.00722333
-0.00665456
-0.00640835
-0.00654594
-0.00710147
-0.00807758
-0.00944436
-0.011142
-0.0130871
-0.0151809
-0.0173199
-0.0194054
-0.0213516
-0.0230906
-0.0245749
-0.0257763
-0.026682
-0.0272884
-0.0275834
-0.0275275
-0.0272349
0.00177675
0.00141337
0.00095723
0.000453808
-0.000100369
-0.000707019
-0.00136908
-0.00209164
-0.00287978
-0.00373679
-0.00466282
-0.00565389
-0.00670098
-0.00778917
-0.00889707
-0.00999654
-0.011053
-0.0120266
-0.012874
-0.0135515
-0.0140188
-0.0142432
-0.0142043
-0.013898
-0.0133403
-0.0125702
-0.0116467
-0.0106485
-0.00966894
-0.00880882
-0.00816809
-0.00783618
-0.00788271
-0.00834949
-0.00924524
-0.0105438
-0.0121864
-0.0140881
-0.0161468
-0.0182544
-0.0203078
-0.0222188
-0.0239192
-0.0253636
-0.0265281
-0.0274055
-0.0279972
-0.0282928
-0.0282498
-0.027975
0.00264191
0.00212541
0.00155239
0.000994248
0.000419804
-0.000190716
-0.000852199
-0.00157948
-0.00238574
-0.0032809
-0.00427066
-0.00535547
-0.00652943
-0.00777916
-0.00908286
-0.0104098
-0.0117204
-0.0129677
-0.0140994
-0.0150616
-0.0158027
-0.0162792
-0.0164603
-0.0163326
-0.0159045
-0.0152112
-0.0143096
-0.0132791
-0.0122169
-0.0112305
-0.0104297
-0.00991556
-0.00977065
-0.0100496
-0.0107724
-0.0119216
-0.0134435
-0.0152542
-0.0172491
-0.0193149
-0.0213423
-0.0232364
-0.024925
-0.0263609
-0.0275213
-0.0284012
-0.029006
-0.0293296
-0.0293345
-0.0291167
0.00352732
0.00284147
0.00213714
0.00151194
0.000901624
0.000265471
-0.000424806
-0.00119466
-0.00206593
-0.00305562
-0.00417519
-0.00542947
-0.0068152
-0.00831951
-0.00991859
-0.011577
-0.0132477
-0.014874
-0.0163917
-0.017734
-0.0188358
-0.01964
-0.0201031
-0.0202002
-0.0199298
-0.0193206
-0.0184257
-0.0173241
-0.0161161
-0.014917
-0.0138482
-0.0130265
-0.0125526
-0.0125004
-0.0129087
-0.0137761
-0.0150607
-0.0166848
-0.0185447
-0.0205227
-0.0225017
-0.0243778
-0.0260697
-0.0275235
-0.0287121
-0.0296299
-0.0302824
-0.0306674
-0.0307556
-0.0306285
0.00433827
0.00347422
0.00263089
0.00193008
0.00126911
0.000583545
-0.000169669
-0.00102736
-0.00202044
-0.00317328
-0.00450313
-0.00601888
-0.0077192
-0.00959048
-0.0116051
-0.0137208
-0.0158806
-0.0180154
-0.0200468
-0.0218921
-0.02347
-0.0247069
-0.0255436
-0.0259404
-0.025882
-0.0253866
-0.0245004
-0.0232988
-0.0218835
-0.0203771
-0.0189141
-0.0176303
-0.0166504
-0.0160758
-0.0159732
-0.0163678
-0.0172391
-0.0185244
-0.0201266
-0.0219271
-0.0238012
-0.0256328
-0.0273269
-0.0288165
-0.030064
-0.0310563
-0.031795
-0.0322781
-0.0324837
-0.0324749
0.00496957
0.00392504
0.00294017
0.00215723
0.00143014
0.000668266
-0.000187454
-0.00118587
-0.00236739
-0.00376387
-0.00539833
-0.00728329
-0.00941843
-0.011788
-0.0143589
-0.0170798
-0.0198817
-0.0226805
-0.0253808
-0.0278815
-0.0300819
-0.0318886
-0.0332227
-0.0340254
-0.0342634
-0.0339387
-0.0330857
-0.031772
-0.0300973
-0.0281893
-0.0261954
-0.024273
-0.0225762
-0.021242
-0.0203765
-0.020044
-0.0202594
-0.0209872
-0.0221473
-0.0236265
-0.0252945
-0.0270215
-0.0286935
-0.0302232
-0.0315537
-0.0326561
-0.0335207
-0.0341399
-0.0344952
-0.0346273
0.00530756
0.0040859
0.0029608
0.00208975
0.00127906
0.000409956
-0.000593618
-0.00179316
-0.00323891
-0.00497047
-0.00701645
-0.00939254
-0.0120985
-0.0151151
-0.0184019
-0.0218965
-0.0255157
-0.029158
-0.0327085
-0.0360445
-0.0390424
-0.0415853
-0.0435705
-0.0449156
-0.045564
-0.0454958
-0.0447283
-0.0433154
-0.0413497
-0.0389598
-0.036304
-0.0335609
-0.0309173
-0.0285531
-0.0266251
-0.0252513
-0.024499
-0.0243773
-0.0248384
-0.025786
-0.0270902
-0.0286078
-0.030201
-0.0317536
-0.0331791
-0.0344218
-0.0354503
-0.0362433
-0.0367792
-0.0370721
0.00523302
0.00384285
0.00258159
0.00161578
0.000701094
-0.000310526
-0.00151289
-0.00298066
-0.00477435
-0.00694145
-0.00951613
-0.0125167
-0.015942
-0.0197679
-0.023945
-0.0283979
-0.0330266
-0.03771
-0.0423105
-0.0466807
-0.0506708
-0.0541364
-0.0569469
-0.0589925
-0.060189
-0.0604896
-0.0598896
-0.0584221
-0.0561669
-0.0532472
-0.0498264
-0.0461007
-0.0422887
-0.0386166
-0.0353004
-0.0325266
-0.0304335
-0.0290971
-0.0285235
-0.0286514
-0.029364
-0.0305091
-0.0319224
-0.0334499
-0.034963
-0.0363655
-0.0375911
-0.0385939
-0.0393406
-0.0398138
0.00462618
0.00308068
0.00168934
0.000620693
-0.000421563
-0.00161511
-0.00307191
-0.00488024
-0.00711126
-0.00982061
-0.0130478
-0.0168133
-0.0211139
-0.0259191
-0.0311685
-0.0367717
-0.0426093
-0.0485374
-0.0543927
-0.0599999
-0.0651796
-0.0697568
-0.0735704
-0.0764803
-0.078373
-0.0791715
-0.078846
-0.0774025
-0.0749018
-0.0714541
-0.067219
-0.0624016
-0.0572453
-0.0520194
-0.0470019
-0.0424577
-0.0386144
-0.0356388
-0.0336192
-0.0325562
-0.0323675
-0.0329045
-0.0339784
-0.0353901
-0.0369551
-0.0385201
-0.0399675
-0.0412126
-0.0422006
-0.0428751
0.00337227
0.00168891
0.000175051
-0.00100616
-0.00220248
-0.00362058
-0.00539061
-0.00761478
-0.0103752
-0.0137358
-0.0177412
-0.0224132
-0.0277452
-0.0336985
-0.0401998
-0.0471402
-0.0543782
-0.0617435
-0.069044
-0.0760733
-0.0826198
-0.0884765
-0.0934508
-0.0973727
-0.1001
-0.101525
-0.101593
-0.10028
-0.0976228
-0.0937098
-0.0886861
-0.0827525
-0.0761634
-0.0692191
-0.0622523
-0.0556075
-0.049613
-0.0445491
-0.0406173
-0.0379159
-0.0364299
-0.0360387
-0.0365408
-0.0376895
-0.0392318
-0.0409381
-0.0426192
-0.0441342
-0.045394
-0.0462945
0.00136854
-0.000431592
-0.0020592
-0.00336411
-0.00474301
-0.00642994
-0.00857292
-0.0112881
-0.0146688
-0.018787
-0.023692
-0.0294056
-0.0359162
-0.0431747
-0.0510912
-0.0595355
-0.0683397
-0.0773036
-0.0862026
-0.0947969
-0.102842
-0.110099
-0.116346
-0.121386
-0.125051
-0.127209
-0.127784
-0.126722
-0.124032
-0.119776
-0.114073
-0.107104
-0.0991152
-0.0904163
-0.0813758
-0.0724049
-0.0639312
-0.056362
-0.0500406
-0.0452034
-0.0419476
-0.0402204
-0.0398336
-0.0405021
-0.0418958
-0.0436894
-0.0455984
-0.0474038
-0.0489665
-0.0501217
-0.0014693
-0.00336173
-0.00509315
-0.00653361
-0.00812422
-0.0101239
-0.0126976
-0.0159754
-0.0200613
-0.0250351
-0.0309497
-0.0378252
-0.0456426
-0.0543388
-0.0638038
-0.0738816
-0.0843737
-0.095046
-0.105639
-0.115877
-0.125484
-0.134193
-0.141757
-0.147958
-0.152612
-0.155565
-0.156728
-0.156029
-0.153446
-0.149013
-0.142815
-0.134998
-0.125777
-0.115446
-0.104378
-0.0930224
-0.0818873
-0.0715026
-0.0623701
-0.0549012
-0.0493576
-0.04581
-0.0441297
-0.0440195
-0.0450753
-0.0468598
-0.0489667
-0.051073
-0.0529695
-0.0544119
-0.00520031
-0.00715787
-0.00898176
-0.0105693
-0.0123995
-0.0147529
-0.0178102
-0.0217144
-0.0265798
-0.0324927
-0.0395081
-0.047642
-0.0568647
-0.067095
-0.0781983
-0.0899878
-0.10223
-0.114653
-0.126961
-0.138844
-0.149996
-0.160126
-0.168971
-0.176302
-0.181925
-0.18568
-0.187468
-0.187213
-0.184867
-0.180438
-0.173973
-0.165575
-0.15541
-0.143726
-0.130865
-0.117275
-0.103504
-0.0901773
-0.0779493
-0.0674284
-0.0590898
-0.0531941
-0.0497398
-0.0484678
-0.0489226
-0.0505487
-0.0527925
-0.0551958
-0.057455
-0.0592202
-0.00985333
-0.0118464
-0.0137497
-0.0154942
-0.0175887
-0.0203312
-0.0239165
-0.0284991
-0.0342024
-0.0411177
-0.0492994
-0.0587565
-0.0694444
-0.0812594
-0.094037
-0.107555
-0.12154
-0.135682
-0.149647
-0.163093
-0.175691
-0.187132
-0.197146
-0.205501
-0.212007
-0.216509
-0.218904
-0.219127
-0.217115
-0.212853
-0.206357
-0.197682
-0.186936
-0.174298
-0.160046
-0.144579
-0.128433
-0.112278
-0.096884
-0.0830511
-0.0714984
-0.0627414
-0.0569888
-0.0540975
-0.0536107
-0.0548674
-0.0571477
-0.0598252
-0.0624713
-0.0645968
-0.0154229
-0.01742
-0.0193876
-0.0212958
-0.0236739
-0.0268328
-0.0309788
-0.0362764
-0.0428558
-0.0508112
-0.0601935
-0.0710008
-0.0831691
-0.0965675
-0.110997
-0.126195
-0.141848
-0.157605
-0.173095
-0.187951
-0.201824
-0.214399
-0.225406
-0.234622
-0.241871
-0.247012
-0.249947
-0.250634
-0.249003
-0.24503
-0.238706
-0.230043
-0.219091
-0.205953
-0.190817
-0.173994
-0.15595
-0.137333
-0.118966
-0.101796
-0.0867832
-0.0747429
-0.0661793
-0.0611652
-0.0593255
-0.0599355
-0.0621055
-0.0650092
-0.0680576
-0.0705808
-0.0218677
-0.023836
-0.0258501
-0.0279242
-0.0305978
-0.0341898
-0.0389151
-0.0449456
-0.052416
-0.0614202
-0.0720025
-0.0841457
-0.0977627
-0.11269
-0.128692
-0.145462
-0.162645
-0.17985
-0.196677
-0.212735
-0.227667
-0.241157
-0.252945
-0.262826
-0.270645
-0.276283
-0.279656
-0.280748
-0.279497
-0.275878
-0.269867
-0.261449
-0.250622
-0.237417
-0.221927
-0.204348
-0.185032
-0.164534
-0.143648
-0.123392
-0.104917
-0.0893449
-0.0775413
-0.0699036
-0.0662514
-0.0658744
-0.0677357
-0.0707871
-0.0742403
-0.0771952
-0.0291108
-0.0310169
-0.0330568
-0.0352932
-0.0382653
-0.0422946
-0.0476015
-0.0543621
-0.0627127
-0.0727439
-0.0844893
-0.0979134
-0.112902
-0.129256
-0.146698
-0.164882
-0.18341
-0.201855
-0.219793
-0.236818
-0.25257
-0.266743
-0.279092
-0.289435
-0.297644
-0.303627
-0.307319
-0.308731
-0.307818
-0.304561
-0.298937
-0.290913
-0.280454
-0.267535
-0.252162
-0.234413
-0.214499
-0.192831
-0.170089
-0.14726
-0.1256
-0.10649
-0.0911784
-0.0804827
-0.0745485
-0.0727958
-0.0740988
-0.0771839
-0.0810276
-0.0844418
-0.0370428
-0.0388529
-0.040895
-0.0432833
-0.0465466
-0.0510039
-0.0568772
-0.0643436
-0.0735378
-0.0845435
-0.097381
-0.111993
-0.128235
-0.145872
-0.164587
-0.18399
-0.203647
-0.223104
-0.241914
-0.259666
-0.276005
-0.290637
-0.303342
-0.313961
-0.322395
-0.32858
-0.332478
-0.334113
-0.333471
-0.330542
-0.325312
-0.317748
-0.307799
-0.295404
-0.280503
-0.263074
-0.243186
-0.221077
-0.197252
-0.172566
-0.148262
-0.12588
-0.107019
-0.0929677
-0.0843244
-0.0807856
-0.0812364
-0.0842045
-0.0884039
-0.0922955
-0.0455259
-0.0472072
-0.049225
-0.0517474
-0.0552836
-0.0601452
-0.0665521
-0.0746789
-0.0846552
-0.0965551
-0.110383
-0.126057
-0.143404
-0.162151
-0.181942
-0.202351
-0.222912
-0.243148
-0.2626
-0.280857
-0.297573
-0.312474
-0.325361
-0.336103
-0.344628
-0.350897
-0.354897
-0.356667
-0.35622
-0.353559
-0.348686
-0.341577
-0.332183
-0.320428
-0.306217
-0.289453
-0.270087
-0.248187
-0.224049
-0.198321
-0.172111
-0.146983
-0.12479
-0.107281
-0.0956027
-0.0898837
-0.0891602
-0.0918257
-0.096323
-0.100698
-0.0544011
-0.0559223
-0.0578866
-0.0605179
-0.0642978
-0.0695259
-0.0764167
-0.0851386
-0.095813
-0.108502
-0.123193
-0.13978
-0.158059
-0.177724
-0.198384
-0.219582
-0.240827
-0.261624
-0.281511
-0.300082
-0.317003
-0.33202
-0.344958
-0.355711
-0.364228
-0.370495
-0.374517
-0.376349
-0.376023
-0.373561
-0.368979
-0.362273
-0.353406
-0.342307
-0.328871
-0.312963
-0.294448
-0.273254
-0.249472
-0.223504
-0.196221
-0.169072
-0.144015
-0.123179
-0.108295
-0.100063
-0.097838
-0.0999874
-0.104702
-0.109554
-0.0634953
-0.0648278
-0.0667076
-0.0694155
-0.0733989
-0.0789425
-0.0862517
-0.0954857
-0.106756
-0.12011
-0.135517
-0.15285
-0.171875
-0.192259
-0.213581
-0.235359
-0.257084
-0.278252
-0.2984
-0.317131
-0.334127
-0.349152
-0.362053
-0.372743
-0.38119
-0.387398
-0.391391
-0.393228
-0.392964
-0.390632
-0.386268
-0.379886
-0.371471
-0.360972
-0.348294
-0.333292
-0.315791
-0.29562
-0.272697
-0.247176
-0.219642
-0.191301
-0.164047
-0.140251
-0.122182
-0.111209
-0.107181
-0.108585
-0.113415
-0.118723
-0.0726301
-0.0737489
-0.0755124
-0.0782579
-0.082395
-0.0881906
-0.0958387
-0.105487
-0.117234
-0.131114
-0.147079
-0.16498
-0.184562
-0.205468
-0.227253
-0.249419
-0.271445
-0.292824
-0.313096
-0.331874
-0.348855
-0.363821
-0.376634
-0.387223
-0.395571
-0.401693
-0.405625
-0.407432
-0.407185
-0.404924
-0.400705
-0.394561
-0.386502
-0.376504
-0.364497
-0.350353
-0.333889
-0.314881
-0.293128
-0.268572
-0.241499
-0.212792
-0.184131
-0.157938
-0.13691
-0.12311
-0.117032
-0.117461
-0.122287
-0.128016
-0.0816299
-0.0825149
-0.0841302
-0.0868689
-0.091101
-0.0970743
-0.10497
-0.114922
-0.127016
-0.141273
-0.157628
-0.175918
-0.19587
-0.217107
-0.239173
-0.261557
-0.283733
-0.305195
-0.325489
-0.344238
-0.361151
-0.376023
-0.38873
-0.399209
-0.407453
-0.413485
-0.417347
-0.419105
-0.418842
-0.416607
-0.412469
-0.40648
-0.398676
-0.389063
-0.377604
-0.364204
-0.348698
-0.330855
-0.310404
-0.287133
-0.261062
-0.232725
-0.203465
-0.175576
-0.152003
-0.135447
-0.127157
-0.1264
-0.131093
-0.137198
-0.0903299
-0.0909662
-0.0924031
-0.0950868
-0.0993476
-0.105415
-0.113456
-0.123592
-0.135894
-0.150372
-0.166949
-0.185449
-0.205588
-0.226981
-0.249163
-0.271618
-0.293821
-0.315268
-0.335513
-0.354188
-0.371009
-0.385782
-0.398388
-0.40877
-0.416924
-0.422877
-0.426673
-0.428376
-0.428081
-0.425838
-0.421728
-0.415822
-0.408178
-0.398833
-0.387786
-0.374984
-0.360299
-0.34352
-0.324359
-0.302509
-0.277786
-0.250394
-0.221282
-0.19245
-0.166889
-0.147807
-0.137246
-0.135126
-0.139555
-0.145982
-0.098583
-0.0989622
-0.100193
-0.102771
-0.106988
-0.113058
-0.121135
-0.131326
-0.143691
-0.158231
-0.17486
-0.193397
-0.213552
-0.234938
-0.257088
-0.279491
-0.301621
-0.322982
-0.343134
-0.361713
-0.378442
-0.393129
-0.405656
-0.415969
-0.424061
-0.429957
-0.433702
-0.435355
-0.43502
-0.432746
-0.428624
-0.42274
-0.415174
-0.405989
-0.395222
-0.382863
-0.368831
-0.352958
-0.334972
-0.314529
-0.291312
-0.26525
-0.236895
-0.207847
-0.180936
-0.159693
-0.146913
-0.143303
-0.147343
-0.154032
-0.106266
-0.106387
-0.107387
-0.109806
-0.113904
-0.119878
-0.127872
-0.137984
-0.150264
-0.164704
-0.181218
-0.199624
-0.219634
-0.240864
-0.262854
-0.285098
-0.307078
-0.328302
-0.348335
-0.366815
-0.383466
-0.398095
-0.410579
-0.42086
-0.428925
-0.434795
-0.438512
-0.440128
-0.439753
-0.437434
-0.43327
-0.42736
-0.419801
-0.410682
-0.400074
-0.388009
-0.374458
-0.359303
-0.342314
-0.323156
-0.301442
-0.276906
-0.249744
-0.221104
-0.193495
-0.17055
-0.155708
-0.150537
-0.154076
-0.16097
-0.113281
-0.11315
-0.113901
-0.116111
-0.120009
-0.125783
-0.13357
-0.143461
-0.155501
-0.169681
-0.185916
-0.204029
-0.223742
-0.244681
-0.266397
-0.288393
-0.310159
-0.331211
-0.351113
-0.369504
-0.386103
-0.400708
-0.413191
-0.423482
-0.431561
-0.437441
-0.441157
-0.442759
-0.442348
-0.439981
-0.435755
-0.429781
-0.422172
-0.41304
-0.402485
-0.390579
-0.377342
-0.362709
-0.34651
-0.328444
-0.308111
-0.285125
-0.2594
-0.231646
-0.203934
-0.179792
-0.163127
-0.156384
-0.159328
-0.166373
-0.11956
-0.119192
-0.119684
-0.121634
-0.125249
-0.130713
-0.138164
-0.147689
-0.159334
-0.173093
-0.188888
-0.206555
-0.22583
-0.246356
-0.267697
-0.28937
-0.310875
-0.33173
-0.351501
-0.36982
-0.386397
-0.401019
-0.413545
-0.423893
-0.432028
-0.437953
-0.441695
-0.443299
-0.442859
-0.440443
-0.436144
-0.430081
-0.422378
-0.413168
-0.402576
-0.39071
-0.377633
-0.363337
-0.347707
-0.330501
-0.311342
-0.289793
-0.265572
-0.239004
-0.211673
-0.186825
-0.16863
-0.160353
-0.16263
-0.169781
-0.125065
-0.124482
-0.12471
-0.126356
-0.129607
-0.134646
-0.141621
-0.150626
-0.161715
-0.17489
-0.190088
-0.207161
-0.225865
-0.245863
-0.266738
-0.288021
-0.309222
-0.329862
-0.349504
-0.367773
-0.384363
-0.399048
-0.411668
-0.422123
-0.430364
-0.436381
-0.44019
-0.44183
-0.44138
-0.438917
-0.434531
-0.42835
-0.420511
-0.411164
-0.400458
-0.388528
-0.375476
-0.361339
-0.346064
-0.329468
-0.311224
-0.290895
-0.268084
-0.242816
-0.216199
-0.191068
-0.171651
-0.161915
-0.163468
-0.170692
-0.129786
-0.129017
-0.128985
-0.130288
-0.133093
-0.13759
-0.143944
-0.152268
-0.162633
-0.17506
-0.189504
-0.20584
-0.223847
-0.243212
-0.263539
-0.284374
-0.305236
-0.325648
-0.345169
-0.363409
-0.380049
-0.394839
-0.407601
-0.418214
-0.42661
-0.432762
-0.436676
-0.438382
-0.437946
-0.435454
-0.43099
-0.424687
-0.416691
-0.407162
-0.396268
-0.384171
-0.371011
-0.356871
-0.341743
-0.325502
-0.307882
-0.288481
-0.266857
-0.242825
-0.217076
-0.191971
-0.171606
-0.160498
-0.161283
-0.168561
-0.133741
-0.132823
-0.132543
-0.133468
-0.135745
-0.13958
-0.145162
-0.152638
-0.162108
-0.173619
-0.187156
-0.202618
-0.219812
-0.238449
-0.258155
-0.278492
-0.298987
-0.319164
-0.338571
-0.356808
-0.373532
-0.388472
-0.401424
-0.412245
-0.420846
-0.427181
-0.431242
-0.433049
-0.432654
-0.430152
-0.425617
-0.419188
-0.411016
-0.401274
-0.390144
-0.377806
-0.364422
-0.35011
-0.334915
-0.318772
-0.301468
-0.28265
-0.261882
-0.23886
-0.213944
-0.189015
-0.1679
-0.155488
-0.155459
-0.162785
-0.136972
-0.135948
-0.135439
-0.135956
-0.137626
-0.140672
-0.145325
-0.151777
-0.160174
-0.170604
-0.183082
-0.19754
-0.213814
-0.231639
-0.250663
-0.270461
-0.290568
-0.310505
-0.329812
-0.348069
-0.364913
-0.380046
-0.393237
-0.404318
-0.413175
-0.419743
-0.423997
-0.425947
-0.42563
-0.423142
-0.418554
-0.412003
-0.403646
-0.393663
-0.382246
-0.369593
-0.355883
-0.341258
-0.325793
-0.30947
-0.292148
-0.273527
-0.253199
-0.230814
-0.206501
-0.181712
-0.159917
-0.146217
-0.145307
-0.152683
-0.139543
-0.138464
-0.137752
-0.137832
-0.138812
-0.140938
-0.144495
-0.149742
-0.156885
-0.166064
-0.177338
-0.190672
-0.205931
-0.222874
-0.241167
-0.260397
-0.280104
-0.299804
-0.319026
-0.337329
-0.354328
-0.369697
-0.383175
-0.394568
-0.403735
-0.41059
-0.415089
-0.417228
-0.417034
-0.414592
-0.409978
-0.403319
-0.394778
-0.384536
-0.372792
-0.359751
-0.345608
-0.330522
-0.314591
-0.297823
-0.280119
-0.261254
-0.240874
-0.21862
-0.19449
-0.169591
-0.147013
-0.131936
-0.130034
-0.137461
-0.141535
-0.140459
-0.139574
-0.139189
-0.139391
-0.140456
-0.142743
-0.146595
-0.152301
-0.160066
-0.169998
-0.182102
-0.196267
-0.212275
-0.229805
-0.248453
-0.267758
-0.287233
-0.30639
-0.32477
-0.34196
-0.357607
-0.371422
-0.383178
-0.39271
-0.399907
-0.404707
-0.407089
-0.40707
-0.404715
-0.40011
-0.39337
-0.384654
-0.374144
-0.362039
-0.348546
-0.333864
-0.31816
-0.301546
-0.28405
-0.265595
-0.245997
-0.224979
-0.202223
-0.177663
-0.152171
-0.128485
-0.111786
-0.108704
-0.116162
-0.14305
-0.142042
-0.141017
-0.14013
-0.139449
-0.1393
-0.140131
-0.142397
-0.146485
-0.152681
-0.161151
-0.171936
-0.184951
-0.199993
-0.21675
-0.23482
-0.253739
-0.27301
-0.29213
-0.31062
-0.328041
-0.344011
-0.358209
-0.370381
-0.380335
-0.387933
-0.393093
-0.395777
-0.395988
-0.393774
-0.389225
-0.382437
-0.373566
-0.362788
-0.350296
-0.336289
-0.32096
-0.304474
-0.286941
-0.268398
-0.24878
-0.227919
-0.205585
-0.181548
-0.155749
-0.128926
-0.10354
-0.0847526
-0.0801722
-0.0875835
-0.144207
-0.143343
-0.142207
-0.140759
-0.139068
-0.137531
-0.136712
-0.137199
-0.139498
-0.143989
-0.150898
-0.160305
-0.172143
-0.186216
-0.202215
-0.219733
-0.238299
-0.257403
-0.276526
-0.295166
-0.312859
-0.329196
-0.343826
-0.356467
-0.366897
-0.374956
-0.380538
-0.383588
-0.384093
-0.382082
-0.377638
-0.370848
-0.361852
-0.350813
-0.33791
-0.323327
-0.30724
-0.289795
-0.271087
-0.251139
-0.229884
-0.207159
-0.182742
-0.156476
-0.12841
-0.0992369
-0.0712373
-0.0495841
-0.0429918
-0.0501557
-0.145157
-0.144522
-0.143288
-0.141186
-0.138319
-0.13519
-0.132515
-0.131036
-0.131397
-0.134076
-0.139362
-0.147366
-0.158035
-0.171171
-0.186457
-0.203476
-0.221743
-0.240733
-0.259908
-0.278745
-0.296756
-0.313505
-0.328616
-0.341775
-0.352737
-0.361316
-0.367383
-0.370863
-0.371727
-0.369988
-0.365706
-0.358965
-0.349877
-0.338589
-0.325256
-0.310035
-0.293069
-0.274472
-0.254305
-0.232554
-0.209123
-0.183828
-0.156448
-0.126836
-0.0951997
-0.0623475
-0.0304388
-0.00471083
0.00473551
-0.00174515
-0.146108
-0.145787
-0.144438
-0.141523
-0.137253
-0.132294
-0.127546
-0.123931
-0.122237
-0.12304
-0.126687
-0.133312
-0.142864
-0.155133
-0.169784
-0.186384
-0.204427
-0.223372
-0.24266
-0.261748
-0.280127
-0.297335
-0.31297
-0.326696
-0.338239
-0.347392
-0.354004
-0.357978
-0.359266
-0.357864
-0.353805
-0.347162
-0.338019
-0.326493
-0.312708
-0.29678
-0.278807
-0.258849
-0.236908
-0.21291
-0.186692
-0.158019
-0.126633
-0.0923959
-0.0555877
-0.0173188
0.0202111
0.0517578
0.065438
0.0605441
-0.147378
-0.147438
-0.145885
-0.141895
-0.135907
-0.128833
-0.121793
-0.1159
-0.112082
-0.111005
-0.113059
-0.118385
-0.12692
-0.138433
-0.152561
-0.168847
-0.186763
-0.205745
-0.225216
-0.244614
-0.263409
-0.281119
-0.29732
-0.311652
-0.323819
-0.333592
-0.340797
-0.345317
-0.347085
-0.346075
-0.342296
-0.335792
-0.326622
-0.314863
-0.300598
-0.283888
-0.264768
-0.243224
-0.219171
-0.192438
-0.162758
-0.12979
-0.0931948
-0.0527991
-0.00892749
0.037022
0.0823698
0.121989
0.142018
0.140409
-0.149525
-0.14995
-0.147959
-0.142464
-0.134325
-0.124793
-0.115245
-0.106975
-0.101032
-0.0981432
-0.0987176
-0.102886
-0.110556
-0.121464
-0.135212
-0.151312
-0.16921
-0.18832
-0.208049
-0.227815
-0.247071
-0.265318
-0.282113
-0.297077
-0.309894
-0.320314
-0.328143
-0.333244
-0.335527
-0.334943
-0.331478
-0.325141
-0.315958
-0.30396
-0.289174
-0.271599
-0.251187
-0.227822
-0.201304
-0.171321
-0.13745
-0.0991828
-0.0560219
-0.00768677
0.0455059
0.10203
0.158242
0.208749
0.238277
0.242723
-0.153609
-0.154146
-0.151181
-0.14348
-0.132596
-0.120201
-0.107938
-0.0972513
-0.0892554
-0.0847032
-0.0839867
-0.0871989
-0.0942026
-0.104688
-0.118219
-0.134271
-0.152266
-0.171595
-0.191647
-0.211828
-0.231576
-0.250378
-0.267776
-0.283374
-0.296842
-0.307908
-0.316362
-0.322045
-0.324847
-0.324695
-0.321547
-0.31538
-0.306175
-0.293914
-0.278558
-0.260029
-0.238179
-0.212769
-0.183442
-0.149701
-0.110904
-0.0662945
-0.0151191
0.043129
0.108268
0.178727
0.250305
0.315991
0.360479
0.375913
-0.161758
-0.161531
-0.156438
-0.145399
-0.130952
-0.115212
-0.100032
-0.086946
-0.077052
-0.071054
-0.0692948
-0.071797
-0.0783605
-0.0886218
-0.102101
-0.118239
-0.136432
-0.156052
-0.176474
-0.197093
-0.217336
-0.23668
-0.254656
-0.270857
-0.284937
-0.29661
-0.30565
-0.311879
-0.315166
-0.315413
-0.312551
-0.306523
-0.297267
-0.284708
-0.268731
-0.249167
-0.225755
-0.198108
-0.16568
-0.12774
-0.0833573
-0.031433
0.0291708
0.0993506
0.179251
0.267477
0.359792
0.447849
0.51655
0.553396
-0.178225
-0.174906
-0.165279
-0.149061
-0.12992
-0.110239
-0.0919307
-0.0764905
-0.0648948
-0.0577121
-0.0551844
-0.0572325
-0.0635775
-0.073796
-0.0873635
-0.103689
-0.122146
-0.142091
-0.162889
-0.183927
-0.204627
-0.224459
-0.242948
-0.259677
-0.27429
-0.286491
-0.296038
-0.302738
-0.306441
-0.307026
-0.304396
-0.298457
-0.289107
-0.276212
-0.259577
-0.238931
-0.213889
-0.183898
-0.148199
-0.105784
-0.0553673
0.00459423
0.075788
0.159748
0.257269
0.367453
0.486288
0.605903
0.707726
0.779753
-0.211164
-0.199358
-0.180197
-0.155706
-0.130267
-0.1059
-0.0842111
-0.06645
-0.053348
-0.0452537
-0.0422181
-0.0440365
-0.0503413
-0.0606473
-0.0743879
-0.0909451
-0.109674
-0.129923
-0.151051
-0.172442
-0.193515
-0.21374
-0.232638
-0.249787
-0.264826
-0.277449
-0.287403
-0.294483
-0.298521
-0.299375
-0.296922
-0.291032
-0.281561
-0.268318
-0.251033
-0.22933
-0.202695
-0.17041
-0.131492
-0.0846388
-0.0281687
0.0400002
0.122294
0.221257
0.338996
0.47609
0.629668
0.791264
0.930536
1.03499
-0.280093
-0.243244
-0.202664
-0.164692
-0.130993
-0.10132
-0.0762922
-0.0565583
-0.0423823
-0.0337606
-0.0305239
-0.0323431
-0.0387659
-0.0492539
-0.0632095
-0.0799982
-0.098967
-0.119462
-0.140842
-0.162494
-0.183841
-0.204354
-0.223554
-0.241018
-0.256382
-0.269334
-0.279613
-0.287002
-0.291319
-0.292404
-0.290107
-0.284272
-0.27471
-0.261179
-0.243342
-0.220737
-0.192736
-0.15847
-0.116762
-0.0660377
-0.00424007
0.0712653
0.163757
0.277154
0.41583
0.584016
0.783931
1.00979
1.21704
1.36917
-0.457817
-0.312914
-0.218346
-0.164445
-0.124087
-0.0902586
-0.0635171
-0.0435166
-0.02954
-0.0212677
-0.018462
-0.0207335
-0.0275815
-0.0384515
-0.0527483
-0.0698441
-0.0890948
-0.109856
-0.131497
-0.153412
-0.175033
-0.195833
-0.215337
-0.233122
-0.248822
-0.262119
-0.272747
-0.280478
-0.285119
-0.286496
-0.284439
-0.278768
-0.269263
-0.255645
-0.237535
-0.214416
-0.185581
-0.150064
-0.106558
-0.0533122
0.0119879
0.0923865
0.191873
0.315701
0.470904
0.667189
0.917975
1.2395
1.62908
2.0773
-0.912874
-0.40012
-0.194208
-0.145585
-0.108034
-0.0712454
-0.0445248
-0.0263841
-0.0140957
-0.0070818
-0.00529777
-0.00841672
-0.0159501
-0.0273757
-0.0421377
-0.0596395
-0.0792602
-0.100374
-0.122365
-0.144638
-0.16663
-0.187821
-0.207735
-0.225951
-0.242096
-0.25585
-0.26694
-0.275132
-0.280222
-0.282027
-0.280367
-0.275048
-0.265841
-0.252451
-0.234481
-0.211393
-0.182451
-0.14666
-0.102674
-0.0486925
0.017684
0.0996511
0.201513
0.32923
0.491513
0.702286
0.986604
1.39859
2.06756
3.21974
)
;

boundaryField
{
    movingWall
    {
        type            zeroGradient;
    }
    fixedWalls
    {
        type            zeroGradient;
    }
    frontAndBack
    {
        type            empty;
    }
}


// ************************************************************************* //
