/*--------------------------------*- C++ -*----------------------------------*\
  =========                 |
  \\      /  F ield         | OpenFOAM: The Open Source CFD Toolbox
   \\    /   O peration     | Website:  https://openfoam.org
    \\  /    A nd           | Version:  7
     \\/     M anipulation  |
\*---------------------------------------------------------------------------*/
FoamFile
{
    version     2.0;
    format      ascii;
    class       surfaceScalarField;
    location    "150";
    object      phi;
}
// * * * * * * * * * * * * * * * * * * * * * * * * * * * * * * * * * * * * * //

dimensions      [0 3 -1 0 0 0 0];

internalField   nonuniform List<scalar> 
4900
(
5.13231e-07
-5.6604e-07
1.30222e-06
-7.89367e-07
1.82968e-06
-5.27754e-07
1.89291e-06
-6.35071e-08
1.44142e-06
4.51195e-07
4.91613e-07
9.49504e-07
-9.19294e-07
1.41059e-06
-2.75625e-06
1.83664e-06
-4.99471e-06
2.23815e-06
-7.62039e-06
2.62538e-06
-1.06247e-05
3.00398e-06
-1.39983e-05
3.37336e-06
-1.77252e-05
3.72666e-06
-2.17769e-05
4.05145e-06
-2.6108e-05
4.33083e-06
-3.06528e-05
4.54463e-06
-3.53237e-05
4.6707e-06
-4.00103e-05
4.68637e-06
-4.45805e-05
4.57002e-06
-4.88835e-05
4.30288e-06
-5.27546e-05
3.87092e-06
-5.60216e-05
3.26685e-06
-5.85137e-05
2.49193e-06
-6.00714e-05
1.55759e-06
-6.0558e-05
4.86513e-07
-5.9871e-05
-6.87079e-07
-5.79523e-05
-1.91881e-06
-5.47975e-05
-3.15488e-06
-5.04622e-05
-4.33539e-06
-4.50643e-05
-5.398e-06
-3.87819e-05
-6.28251e-06
-3.18462e-05
-6.93572e-06
-2.45299e-05
-7.31632e-06
-1.71309e-05
-7.3991e-06
-9.95308e-06
-7.17787e-06
-3.28651e-06
-6.66662e-06
2.61229e-06
-5.89884e-06
7.53693e-06
-4.92468e-06
1.13426e-05
-3.80567e-06
1.39516e-05
-2.60907e-06
1.53541e-05
-1.40251e-06
1.56028e-05
-2.48739e-07
1.48053e-05
7.97441e-07
1.31163e-05
1.68906e-06
1.0735e-05
2.3812e-06
7.91232e-06
2.8227e-06
4.96809e-06
2.94422e-06
2.32162e-06
2.64645e-06
5.12475e-07
1.80913e-06
5.12471e-07
7.65664e-07
-1.33212e-06
1.63227e-06
-1.65686e-06
1.73699e-06
-6.33265e-07
6.94767e-07
9.77944e-07
-1.61972e-06
2.76488e-06
-5.20085e-06
4.52981e-06
-9.99242e-06
6.20133e-06
-1.59309e-05
7.77426e-06
-2.29622e-05
9.26866e-06
-3.1042e-05
1.07045e-05
-4.01268e-05
1.20879e-05
-5.01605e-05
1.34063e-05
-6.1062e-05
1.46275e-05
-7.27133e-05
1.57022e-05
-8.49511e-05
1.6568e-05
-9.75612e-05
1.71542e-05
-0.000110277
1.73861e-05
-0.000122783
1.71914e-05
-0.000134718
1.65053e-05
-0.000145693
1.52768e-05
-0.000155297
1.34745e-05
-0.000163122
1.10921e-05
-0.000168784
8.15303e-06
-0.00017194
4.71354e-06
-0.000172318
8.64278e-07
-0.000169735
-3.27024e-06
-0.000164117
-7.53769e-06
-0.000155509
-1.17623e-05
-0.00014409
-1.57548e-05
-0.000130166
-1.93228e-05
-0.000114164
-2.22841e-05
-9.66212e-05
-2.4479e-05
-7.81537e-05
-2.5784e-05
-5.94303e-05
-2.61226e-05
-4.11346e-05
-2.54737e-05
-2.39265e-05
-2.38749e-05
-8.40361e-06
-2.14218e-05
4.93264e-06
-1.8261e-05
1.57057e-05
-1.45788e-05
2.36826e-05
-1.0586e-05
2.87804e-05
-6.50034e-06
3.10645e-05
-2.53291e-06
3.07405e-05
1.12137e-06
2.81427e-05
4.28678e-06
2.37284e-05
6.79547e-06
1.80815e-05
8.46952e-06
1.19291e-05
9.09655e-06
6.16231e-06
8.41326e-06
1.82235e-06
6.14904e-06
2.33481e-06
4.7406e-07
-1.80656e-06
4.18062e-07
-1.60179e-06
-1.00978e-06
7.93719e-07
-4.19119e-06
4.15854e-06
-9.25222e-06
7.8251e-06
-1.6187e-05
1.14638e-05
-2.49349e-05
1.49484e-05
-3.54222e-05
1.82607e-05
-4.75764e-05
2.14221e-05
-6.13234e-05
2.44506e-05
-7.6574e-05
2.73378e-05
-9.32079e-05
3.00395e-05
-0.000111057
3.24759e-05
-0.000129892
3.4537e-05
-0.000149416
3.60914e-05
-0.000169258
3.69958e-05
-0.000188979
3.71063e-05
-0.000208078
3.62897e-05
-0.000226008
3.4435e-05
-0.000242196
3.14645e-05
-0.000256066
2.7344e-05
-0.000267065
2.20907e-05
-0.000274692
1.57797e-05
-0.000278525
8.54661e-06
-0.000278249
5.87716e-07
-0.000273676
-7.84312e-06
-0.000264766
-1.64478e-05
-0.000251636
-2.48933e-05
-0.000234563
-3.28281e-05
-0.000213985
-3.99005e-05
-0.00019049
-4.57795e-05
-0.000164793
-5.01758e-05
-0.000137714
-5.28634e-05
-0.000110138
-5.36984e-05
-8.2979e-05
-5.2633e-05
-5.71302e-05
-4.97238e-05
-3.34203e-05
-4.51318e-05
-1.25681e-05
-3.91133e-05
4.85609e-06
-3.20031e-05
1.84607e-05
-2.41907e-05
2.8053e-05
-1.60926e-05
3.36449e-05
-8.12495e-06
3.54513e-05
-6.85091e-07
3.38821e-05
5.856e-06
2.95317e-05
1.11457e-05
2.31773e-05
1.48239e-05
1.5781e-05
1.64929e-05
8.49734e-06
1.56968e-05
2.68294e-06
1.19634e-05
5.01774e-06
-1.71016e-07
-1.63593e-06
-1.83107e-06
5.73048e-08
-5.60551e-06
4.56728e-06
-1.17435e-05
1.02957e-05
-2.0297e-05
1.63778e-05
-3.12254e-05
2.23914e-05
-4.44538e-05
2.8176e-05
-5.98988e-05
3.3705e-05
-7.74715e-05
3.89941e-05
-9.7066e-05
4.40444e-05
-0.000118541
4.8812e-05
-0.0001417
5.3198e-05
-0.000166277
5.70517e-05
-0.000191921
6.0181e-05
-0.000218197
6.23673e-05
-0.000244585
6.33834e-05
-0.000270491
6.3011e-05
-0.000295261
6.10596e-05
-0.000318209
5.73827e-05
-0.000338639
5.1894e-05
-0.000355875
4.45795e-05
-0.000369291
3.55067e-05
-0.000378341
2.48293e-05
-0.000382583
1.27881e-05
-0.000381703
-2.92569e-07
-0.000375536
-1.40105e-05
-0.000364076
-2.79075e-05
-0.000347488
-4.14819e-05
-0.000326106
-5.42102e-05
-0.000300435
-6.55713e-05
-0.000271141
-7.50738e-05
-0.000239032
-8.22847e-05
-0.000205037
-8.68591e-05
-0.000170169
-8.85666e-05
-0.000135488
-8.73141e-05
-0.000102052
-8.31595e-05
-7.08678e-05
-7.63161e-05
-4.2837e-05
-6.71443e-05
-1.8709e-05
-5.61311e-05
9.5975e-07
-4.38596e-05
1.58379e-05
-3.09708e-05
2.58385e-05
-1.81256e-05
3.1124e-05
-5.97064e-06
3.21042e-05
4.87571e-06
2.9425e-05
1.38249e-05
2.39602e-05
2.02887e-05
1.68066e-05
2.36465e-05
9.29008e-06
2.32133e-05
3.00678e-06
1.82467e-05
8.02453e-06
-1.03952e-06
-5.96792e-07
-4.79506e-06
3.81194e-06
-1.15291e-05
1.13004e-05
-2.12578e-05
2.00236e-05
-3.38969e-05
2.90161e-05
-4.9336e-05
3.78297e-05
-6.74692e-05
4.63085e-05
-8.8197e-05
5.4432e-05
-0.00011141
6.22066e-05
-0.000136967
6.96002e-05
-0.000164667
7.65114e-05
-0.000194233
8.27634e-05
-0.000225295
8.8113e-05
-0.000257384
9.22695e-05
-0.000289935
9.49181e-05
-0.000322298
9.57458e-05
-0.000353754
9.4467e-05
-0.000383542
9.08473e-05
-0.000410885
8.47249e-05
-0.000435019
7.60275e-05
-0.000455224
6.47848e-05
-0.000470853
5.11352e-05
-0.000481352
3.53278e-05
-0.000486283
1.77189e-05
-0.000485342
-1.23446e-06
-0.00047837
-2.09822e-05
-0.000465368
-4.091e-05
-0.000446499
-6.03512e-05
-0.000422097
-7.86117e-05
-0.000392671
-9.49978e-05
-0.000358897
-0.000108848
-0.000321611
-0.00011957
-0.000281793
-0.000126677
-0.000240535
-0.000129825
-0.000199005
-0.000128844
-0.0001584
-0.000123765
-0.000119888
-0.000114828
-8.45522e-05
-0.00010248
-5.33294e-05
-8.7354e-05
-2.69583e-05
-7.02307e-05
-5.93541e-06
-5.19938e-05
9.51575e-06
-3.35768e-05
1.94626e-05
-1.59175e-05
2.42626e-05
7.56677e-08
2.45582e-05
1.35293e-05
2.12606e-05
2.35863e-05
1.55432e-05
2.93638e-05
8.84671e-06
2.99097e-05
2.92482e-06
2.41686e-05
1.09493e-05
-2.06468e-06
1.46757e-06
-8.27063e-06
1.0017e-05
-1.84132e-05
2.14422e-05
-3.21995e-05
3.3809e-05
-4.9359e-05
4.61749e-05
-6.96831e-05
5.8153e-05
-9.3019e-05
6.96437e-05
-0.000119242
8.06541e-05
-0.000148216
9.11799e-05
-0.000179757
0.000101141
-0.000213605
0.000110358
-0.000249398
0.000118556
-0.000286667
0.000125382
-0.000324837
0.000130438
-0.000363234
0.000133314
-0.000401107
0.000133619
-0.000437656
0.000131015
-0.000472054
0.000125245
-0.000503481
0.000116152
-0.000531155
0.0001037
-0.000554348
8.79782e-05
-0.000572418
6.92046e-05
-0.000584816
4.77257e-05
-0.000591106
2.40082e-05
-0.00059097
-1.37024e-06
-0.000584226
-2.77264e-05
-0.000570832
-5.43049e-05
-0.000550897
-8.02855e-05
-0.0005247
-0.000104809
-0.000492691
-0.000127007
-0.000455504
-0.000146036
-0.000413953
-0.000161121
-0.000369029
-0.000171602
-0.000321872
-0.000176982
-0.000273741
-0.000176975
-0.000225966
-0.000171539
-0.000179888
-0.000160907
-0.000136787
-0.000145582
-9.78135e-05
-0.000126327
-6.39211e-05
-0.000104123
-3.58049e-05
-8.011e-05
-1.38593e-05
-5.55224e-05
1.84813e-06
-3.1625e-05
1.15873e-05
-9.66354e-06
1.59601e-05
9.15652e-06
1.5879e-05
2.36674e-05
1.25575e-05
3.26852e-05
7.50716e-06
3.49601e-05
2.567e-06
2.91087e-05
1.35163e-05
-3.20343e-06
4.67064e-06
-1.21091e-05
1.89219e-05
-2.59679e-05
3.53001e-05
-4.41215e-05
5.19619e-05
-6.60788e-05
6.81314e-05
-9.15114e-05
8.35849e-05
-0.000120208
9.83392e-05
-0.000152009
0.000112454
-0.000186746
0.000125917
-0.00022419
0.000138585
-0.000264017
0.000150185
-0.000305787
0.000160326
-0.000348945
0.000168539
-0.000392826
0.000174319
-0.000436679
0.000177167
-0.000479692
0.000176632
-0.000521019
0.000172342
-0.000559814
0.000164039
-0.000595253
0.000151591
-0.000626562
0.000135009
-0.00065303
0.000114446
-0.000674024
9.01986e-05
-0.000688997
6.26981e-05
-0.000697493
3.25041e-05
-0.000699157
2.93737e-07
-0.000693742
-3.31418e-05
-0.000681123
-6.69245e-05
-0.000661312
-0.000100097
-0.000634478
-0.000131643
-0.00060097
-0.000160516
-0.000561328
-0.000185678
-0.0005163
-0.000206148
-0.000466849
-0.000221054
-0.000414133
-0.000229698
-0.000359486
-0.000231621
-0.00030437
-0.000226655
-0.000250309
-0.000214968
-0.00019881
-0.000197081
-0.000151275
-0.000173862
-0.000108918
-0.000146481
-7.26795e-05
-0.000116348
-4.3171e-05
-8.50309e-05
-2.06329e-05
-5.41632e-05
-4.91886e-06
-2.53775e-05
4.49856e-06
-2.60914e-07
8.51318e-06
1.96528e-05
8.35308e-06
3.28453e-05
5.57007e-06
3.7743e-05
2.04104e-06
3.26377e-05
1.55574e-05
-4.42022e-06
9.09062e-06
-1.61826e-05
3.06835e-05
-3.39353e-05
5.3052e-05
-5.66178e-05
7.46437e-05
-8.34959e-05
9.50088e-05
-0.000114109
0.000114198
-0.000148179
0.000132408
-0.000185506
0.00014978
-0.000225883
0.000166294
-0.000269035
0.000181736
-0.000314575
0.000195725
-0.000361997
0.000207747
-0.000410674
0.000217216
-0.000459883
0.000223527
-0.000508824
0.000226109
-0.00055666
0.000224467
-0.000602537
0.000218219
-0.00064562
0.000207121
-0.000685108
0.000191078
-0.00072025
0.000170151
-0.000750356
0.000144552
-0.0007748
0.000114643
-0.000793024
8.09218e-05
-0.000804538
4.40178e-05
-0.000808927
4.68272e-06
-0.000805857
-3.62118e-05
-0.000795097
-7.76853e-05
-0.00077653
-0.000118664
-0.000750185
-0.000157987
-0.000716264
-0.000194437
-0.000675171
-0.000226772
-0.000627537
-0.000253782
-0.000574245
-0.000274347
-0.000516427
-0.000287516
-0.000455459
-0.00029259
-0.000392914
-0.0002892
-0.000330504
-0.000277378
-0.000269986
-0.000257599
-0.000213059
-0.000230788
-0.000161253
-0.000198287
-0.000115819
-0.000161782
-7.76476e-05
-0.000123202
-4.72086e-05
-8.46022e-05
-2.45225e-05
-4.80637e-05
-9.1656e-06
-1.56178e-05
-2.91489e-07
1.07787e-05
3.32826e-06
2.92256e-05
3.26986e-06
3.78014e-05
1.42894e-06
3.44786e-05
1.69863e-05
-5.67922e-06
1.47695e-05
-2.03653e-05
4.53689e-05
-4.20653e-05
7.47513e-05
-6.92955e-05
0.000101873
-0.000101069
0.000126782
-0.000136787
0.000149916
-0.0001761
0.000171721
-0.000218764
0.000192444
-0.000264532
0.000212061
-0.000313079
0.000230283
-0.000363967
0.000246612
-0.000416633
0.000260412
-0.000470402
0.000270985
-0.000524515
0.00027764
-0.000578157
0.000279751
-0.000630491
0.000276801
-0.000680685
0.000268412
-0.000727929
0.000254366
-0.000771458
0.000234607
-0.00081055
0.000209243
-0.000844533
0.000178536
-0.000872787
0.000142896
-0.000894736
0.000102871
-0.000909855
5.9137e-05
-0.000917671
1.24979e-05
-0.000917763
-3.61199e-05
-0.00090979
-8.56577e-05
-0.000893502
-0.000134953
-0.000868766
-0.000182723
-0.000835607
-0.000227596
-0.000794244
-0.000268135
-0.000745134
-0.000302892
-0.000689009
-0.000330471
-0.000626907
-0.000349618
-0.000560176
-0.000359321
-0.000490456
-0.00035892
-0.000419619
-0.000348215
-0.000349679
-0.000327539
-0.000282671
-0.000297797
-0.000220502
-0.000260456
-0.000164816
-0.000217468
-0.00011687
-0.000171148
-7.74407e-05
-0.000124032
-4.67805e-05
-7.87238e-05
-2.46157e-05
-3.77826e-05
-1.01766e-05
-3.66047e-06
-2.24755e-06
2.12966e-05
7.65642e-07
3.47882e-05
7.85638e-07
3.44586e-05
1.7772e-05
-6.94105e-06
2.17104e-05
-2.45259e-05
6.29531e-05
-5.01039e-05
0.000100329
-8.17635e-05
0.000133532
-0.000118265
0.000163282
-0.000158872
0.000190523
-0.000203161
0.000216009
-0.000250841
0.000240123
-0.000301624
0.000262843
-0.00035514
0.000283799
-0.000410905
0.000302377
-0.000468315
0.000317822
-0.000526667
0.000329337
-0.000585189
0.000336161
-0.000643071
0.000337632
-0.000699495
0.000333224
-0.000753659
0.000322576
-0.000804792
0.000305499
-0.000852161
0.000281976
-0.000895075
0.000252156
-0.000932883
0.000216344
-0.000964973
0.000174986
-0.000990769
0.000128667
-0.00100973
7.80961e-05
-0.00102134
2.4111e-05
-0.00102513
-3.23304e-05
-0.00102067
-9.01207e-05
-0.00100758
-0.000148043
-0.000985566
-0.000204734
-0.000954462
-0.0002587
-0.000914256
-0.000308341
-0.000865163
-0.000351985
-0.000807682
-0.000387952
-0.000742653
-0.000414647
-0.000671298
-0.000430676
-0.000595228
-0.00043499
-0.000516412
-0.000427031
-0.000437091
-0.00040686
-0.000359644
-0.000375243
-0.00028642
-0.000333681
-0.000219544
-0.000284344
-0.000160746
-0.000229946
-0.000111223
-0.000173555
-7.15561e-05
-0.000118391
-4.16929e-05
-6.76457e-05
-2.09832e-05
-2.43702e-05
-8.24608e-06
8.55946e-06
-1.86266e-06
2.84049e-05
1.39025e-07
3.24569e-05
1.7911e-05
-8.16241e-06
2.98725e-05
-2.85261e-05
8.33163e-05
-5.77919e-05
0.000129594
-9.36317e-05
0.000169372
-0.00013456
0.00020421
-0.000179707
0.00023567
-0.000228575
0.000264877
-0.000280825
0.000292373
-0.000336127
0.000318144
-0.00039407
0.000341743
-0.000454134
0.00036244
-0.000515687
0.000379374
-0.000578011
0.000391661
-0.000640335
0.000398485
-0.000701865
0.000399162
-0.00076181
0.000393169
-0.000819398
0.000380165
-0.000873894
0.000359994
-0.000924598
0.000332679
-0.000970851
0.000298409
-0.00101203
0.000257528
-0.00104757
0.000210519
-0.0010769
0.000158001
-0.00109952
0.000100711
-0.00111491
3.95067e-05
-0.0011226
-2.46427e-05
-0.0011221
-9.06166e-05
-0.00111296
-0.000157188
-0.00109473
-0.000222962
-0.00106704
-0.000286387
-0.00102963
-0.000345753
-0.000982406
-0.000399209
-0.000925544
-0.000444814
-0.000859569
-0.000480622
-0.000785438
-0.000504807
-0.000704598
-0.000515831
-0.00061899
-0.000512639
-0.000530997
-0.000494853
-0.000443314
-0.000462927
-0.000358753
-0.000418241
-0.00028001
-0.000363087
-0.000209415
-0.000300541
-0.000148726
-0.000234243
-9.89895e-05
-0.000168127
-6.04836e-05
-0.000106152
-3.27479e-05
-5.21058e-05
-1.46722e-05
-9.51618e-06
-4.6105e-06
1.83431e-05
-5.08045e-07
2.83545e-05
1.74029e-05
-9.29688e-06
3.91693e-05
-3.22236e-05
0.000106243
-6.48702e-05
0.00016224
-0.000104518
0.000209019
-0.000149449
0.000249141
-0.000198666
0.000284887
-0.000251598
0.000317808
-0.000307855
0.00034863
-0.000367067
0.000377355
-0.000428785
0.000403461
-0.00049246
0.000426114
-0.000557439
0.000444353
-0.000622999
0.000457221
-0.000688376
0.000463862
-0.00075279
0.000463577
-0.000815474
0.000455852
-0.000875684
0.000440374
-0.000932712
0.000417022
-0.000985895
0.000385863
-0.00103462
0.000347132
-0.00107831
0.000301224
-0.00111647
0.000248672
-0.0011486
0.000190133
-0.00117426
0.000126375
-0.00119303
5.82698e-05
-0.00120445
-1.32225e-05
-0.00120806
-8.7008e-05
-0.00120335
-0.000161893
-0.00118979
-0.000236522
-0.00116682
-0.000309358
-0.00113391
-0.000378662
-0.00109063
-0.000442485
-0.00103676
-0.000498685
-0.000972389
-0.000544997
-0.000898051
-0.000579145
-0.000814851
-0.000599031
-0.000724524
-0.000602966
-0.000629439
-0.000589938
-0.000532502
-0.000559863
-0.000436964
-0.000513779
-0.000346139
-0.000453913
-0.00026308
-0.000383599
-0.000190278
-0.000307046
-0.000129419
-0.000228986
-8.12694e-05
-0.000154301
-4.56721e-05
-8.77031e-05
-2.16466e-05
-3.35416e-05
-7.53721e-06
4.2338e-06
-1.17349e-06
2.19908e-05
1.62295e-05
-1.02975e-05
4.94666e-05
-3.54778e-05
0.000131423
-7.10876e-05
0.00019785
-0.000114057
0.000251988
-0.000162457
0.000297541
-0.000215167
0.000337596
-0.000271541
0.000374182
-0.000331138
0.000408228
-0.000393546
0.000439763
-0.000458283
0.000468198
-0.000524772
0.000492603
-0.000592345
0.000511926
-0.000660274
0.00052515
-0.000727797
0.000531385
-0.000794146
0.000529925
-0.000858567
0.000520273
-0.000920335
0.000502143
-0.000978775
0.000475462
-0.00103327
0.000440353
-0.00108325
0.000397118
-0.00112825
0.000346222
-0.00116784
0.000288267
-0.00120168
0.000223966
-0.00122943
0.000154125
-0.00125078
7.96226e-05
-0.0012654
1.4019e-06
-0.00127289
-7.95168e-05
-0.00127278
-0.000162011
-0.00126446
-0.000244836
-0.00124726
-0.000326557
-0.00122042
-0.000405507
-0.00118316
-0.000479745
-0.00113481
-0.000547032
-0.00107494
-0.000604864
-0.00100353
-0.000650555
-0.00092114
-0.000681422
-0.000829071
-0.000695034
-0.000729452
-0.000689557
-0.00062521
-0.000664105
-0.000519915
-0.000619074
-0.000417482
-0.000556345
-0.000321777
-0.000479305
-0.000236187
-0.000392636
-0.000163254
-0.000301918
-0.000104442
-0.000213113
-6.0064e-05
-0.000132081
-2.93737e-05
-6.42319e-05
-1.07484e-05
-1.43915e-05
-1.89014e-06
1.31327e-05
1.43393e-05
-1.11187e-05
6.05854e-05
-3.81558e-05
0.00015846
-7.62112e-05
0.000235905
-0.000121917
0.000297694
-0.000173155
0.000348779
-0.000228686
0.000393128
-0.00028779
0.000433285
-0.000349971
0.000470409
-0.000414773
0.000504565
-0.000481681
0.000535105
-0.00055009
0.000561012
-0.000619317
0.000581154
-0.000688624
0.000594458
-0.000757246
0.000600007
-0.000824415
0.000597095
-0.000889385
0.000585242
-0.00095145
0.000564208
-0.00100997
0.00053398
-0.00106437
0.000494759
-0.0011142
0.000446943
-0.00115907
0.000391095
-0.00119871
0.000327909
-0.00123292
0.000258176
-0.00126155
0.00018275
-0.00128444
0.000102516
-0.00130142
1.83862e-05
-0.00131222
-6.87159e-05
-0.00131645
-0.000157785
-0.00131354
-0.000247748
-0.00130274
-0.000337357
-0.00128312
-0.000425122
-0.00125363
-0.000509235
-0.00121317
-0.000587498
-0.00116073
-0.000657298
-0.00109564
-0.00071565
-0.00101773
-0.000759326
-0.000927649
-0.000785119
-0.000826988
-0.000790217
-0.000718422
-0.000772672
-0.000605612
-0.000731884
-0.00049295
-0.000669007
-0.000385116
-0.000587138
-0.000286532
-0.00049122
-0.000200818
-0.000387632
-0.000130391
-0.00028354
-7.62666e-05
-0.000186206
-3.80962e-05
-0.000102402
-1.43739e-05
-3.81138e-05
-2.6998e-06
1.45862e-06
1.16395e-05
-1.172e-05
7.23052e-05
-4.01398e-05
0.000186879
-8.00364e-05
0.000275802
-0.000127808
0.000345465
-0.000181173
0.000402143
-0.00023878
0.000450735
-0.000299828
0.000494334
-0.000363765
0.000534346
-0.000430088
0.000570888
-0.000498245
0.000603262
-0.000567604
0.000630371
-0.000637462
0.000651012
-0.000707066
0.000664062
-0.000775639
0.00066858
-0.000842409
0.000663864
-0.000906634
0.000649468
-0.000967633
0.000625207
-0.00102481
0.000591155
-0.00107767
0.000547622
-0.00112586
0.000495131
-0.00116914
0.000434373
-0.00120739
0.000366164
-0.0012406
0.000291388
-0.00126881
0.000210957
-0.00129206
0.000125768
-0.00131036
3.66867e-05
-0.00132361
-5.5463e-05
-0.00133156
-0.000149838
-0.00133373
-0.000245575
-0.00132941
-0.00034168
-0.00131759
-0.000436938
-0.00129703
-0.000529798
-0.00126627
-0.000618258
-0.00122379
-0.000699772
-0.00116823
-0.000771219
-0.00109858
-0.000828968
-0.00101461
-0.000869087
-0.000917108
-0.000887724
-0.000808128
-0.000881651
-0.000691096
-0.000848917
-0.00057062
-0.000789482
-0.000452078
-0.00070568
-0.000340969
-0.00060233
-0.000242189
-0.000486412
-0.000159389
-0.00036634
-9.45794e-05
-0.000251015
-4.80464e-05
-0.000148935
-1.85475e-05
-6.76126e-05
-3.64452e-06
-1.34443e-05
7.99502e-06
-1.20674e-05
8.43728e-05
-4.1333e-05
0.000216145
-8.23962e-05
0.000316865
-0.000131496
0.000394566
-0.000186216
0.000456863
-0.000245096
0.000509614
-0.000307252
0.00055649
-0.000372067
0.000599162
-0.000438989
0.00063781
-0.000507428
0.000671701
-0.000576723
0.000699666
-0.000646146
0.000720435
-0.000714923
0.000732839
-0.000782264
0.000735922
-0.000847394
0.000728994
-0.000909581
0.000711656
-0.000968178
0.000683805
-0.00102265
0.000645628
-0.0010726
0.000597576
-0.0011178
0.000540328
-0.00115816
0.000474733
-0.00119374
0.000401744
-0.00122471
0.000322358
-0.0012513
0.00023755
-0.00127376
0.000148229
-0.00129229
5.52134e-05
-0.00130697
-4.07777e-05
-0.00131773
-0.00013908
-0.00132424
-0.000239061
-0.0013259
-0.000340022
-0.00132175
-0.00044109
-0.00131047
-0.000541077
-0.0012904
-0.000638323
-0.00125963
-0.000730543
-0.00121615
-0.0008147
-0.00115814
-0.000886978
-0.00108434
-0.000942889
-0.000994462
-0.000977601
-0.000889613
-0.0009865
-0.000772552
-0.000965977
-0.000647716
-0.000914318
-0.0005209
-0.000832497
-0.000398589
-0.00072464
-0.000287066
-0.000597935
-0.000191485
-0.00046192
-0.000115188
-0.000327312
-5.94064e-05
-0.000204717
-2.33835e-05
-0.000103635
-4.76203e-06
-3.20657e-05
3.23299e-06
-1.2137e-05
9.65098e-05
-4.16649e-05
0.000245673
-8.31691e-05
0.000358369
-0.000132813
0.000444209
-0.000188072
0.000512123
-0.000247387
0.000568929
-0.000309783
0.000618887
-0.000374575
0.000663954
-0.000441157
0.000704392
-0.000508898
0.000739443
-0.000577108
0.000767876
-0.000645032
0.000788359
-0.000711879
0.000799686
-0.000776848
0.000800892
-0.000839168
0.000791314
-0.000898133
0.000770621
-0.000953145
0.000738817
-0.00100375
0.000696234
-0.00104967
0.000643493
-0.00109079
0.000581455
-0.0011272
0.000511144
-0.00115913
0.000433666
-0.0011869
0.000350133
-0.00121094
0.000261586
-0.00123166
0.000168947
-0.00124943
7.29868e-05
-0.00126453
-2.56784e-05
-0.00127705
-0.000126559
-0.00128686
-0.00022925
-0.00129352
-0.000333358
-0.00129623
-0.00043838
-0.00129375
-0.000543557
-0.00128438
-0.000647691
-0.001266
-0.000748932
-0.00123613
-0.000844569
-0.00119222
-0.000930881
-0.00113201
-0.0010031
-0.00105399
-0.00105563
-0.000957976
-0.00108251
-0.000845644
-0.00107831
-0.000720762
-0.0010392
-0.000589103
-0.000964155
-0.000457871
-0.000855872
-0.000334695
-0.00072111
-0.000226436
-0.000570179
-0.000138113
-0.000415636
-7.22761e-05
-0.000270553
-2.8961e-05
-0.00014695
-6.08321e-06
-5.49434e-05
-2.85021e-06
-1.19154e-05
0.000108425
-4.10958e-05
0.000274854
-8.22851e-05
0.000399559
-0.000131659
0.000493583
-0.000186624
0.000567088
-0.00024552
0.000627825
-0.000307283
0.000680651
-0.000371152
0.000727822
-0.000436465
0.000769705
-0.000502552
0.000805531
-0.000568691
0.000834016
-0.00063411
0.000853779
-0.000698005
0.000863582
-0.000759578
0.000862465
-0.000818075
0.000849811
-0.000872834
0.00082538
-0.000923329
0.000789312
-0.000969204
0.000742109
-0.0010103
0.000684588
-0.00104665
0.000617805
-0.00107847
0.000542971
-0.00110615
0.000461346
-0.00113017
0.00037415
-0.00115107
0.000282486
-0.00116941
0.000187286
-0.00118569
8.92736e-05
-0.00120034
-1.10281e-05
-0.00121362
-0.000113285
-0.00122557
-0.000217299
-0.00123597
-0.000322956
-0.00124424
-0.000430112
-0.00124934
-0.000538455
-0.00124972
-0.00064731
-0.00124325
-0.000755397
-0.00122727
-0.000860552
-0.0011987
-0.000959449
-0.0011544
-0.00104741
-0.00109163
-0.00111839
-0.00100878
-0.00116536
-0.000906015
-0.00118107
-0.000785914
-0.0011593
-0.000653666
-0.0010964
-0.000516729
-0.000992809
-0.000383856
-0.000853983
-0.00026367
-0.000690365
-0.000163174
-0.000516132
-8.66544e-05
-0.000347073
-3.5319e-05
-0.000198286
-7.62876e-06
-8.26336e-05
-1.0479e-05
-1.14017e-05
0.000119827
-3.96187e-05
0.000303072
-7.97285e-05
0.000439669
-0.000128013
0.000541868
-0.000181847
0.000620923
-0.00023948
0.00068546
-0.000299754
0.000740925
-0.000361828
0.000789896
-0.000424984
0.000832862
-0.000488515
0.000869063
-0.000551678
0.000897179
-0.000613688
0.000915789
-0.000673746
0.000923639
-0.00073107
0.00091979
-0.000784949
0.00090369
-0.000834785
0.000875216
-0.00088014
0.000834668
-0.00092077
0.00078274
-0.000956639
0.000720457
-0.000987912
0.00064908
-0.00101494
0.000569999
-0.00103821
0.000484619
-0.00105832
0.000394258
-0.0010759
0.000300065
-0.00109159
0.000202973
-0.00110598
0.000103664
-0.00111958
2.57446e-06
-0.00113278
-0.000100086
-0.00114579
-0.00020429
-0.00115859
-0.000310155
-0.00117085
-0.000417848
-0.00118184
-0.000527466
-0.00119029
-0.000638862
-0.00119429
-0.000751394
-0.00119123
-0.000863606
-0.00117784
-0.000972842
-0.00115036
-0.00107489
-0.00110501
-0.00116374
-0.0010387
-0.00123168
-0.00094986
-0.00126991
-0.000839409
-0.00126975
-0.000711317
-0.00122449
-0.000572675
-0.00113145
-0.000432913
-0.000993745
-0.000302291
-0.000820987
-0.000189986
-0.000628437
-0.00010243
-0.000434629
-4.24512e-05
-0.000258265
-9.40764e-06
-0.000115677
-1.98866e-05
-1.06071e-05
0.000130435
-3.72598e-05
0.000329725
-7.55389e-05
0.000477949
-0.000121928
0.000588258
-0.000173813
0.000672808
-0.000229367
0.000741014
-0.000287334
0.000798892
-0.000346793
0.000849356
-0.000406973
0.000893042
-0.000467136
0.000929225
-0.000526525
0.000956569
-0.000584361
0.000973626
-0.000639867
0.000979145
-0.000692301
0.000972225
-0.000741015
0.000952405
-0.000785496
0.000919698
-0.000825411
0.000874583
-0.00086063
0.000817959
-0.000891236
0.000751064
-0.000917512
0.000675356
-0.000939905
0.000592392
-0.000958986
0.000503701
-0.000975402
0.000410675
-0.000989832
0.000314495
-0.00100294
0.000216082
-0.00101535
0.000116074
-0.00102761
1.48387e-05
-0.00104019
-8.75121e-05
-0.0010534
-0.000191082
-0.0010674
-0.000296154
-0.00108211
-0.000403131
-0.00109713
-0.000512449
-0.00111156
-0.000624431
-0.00112389
-0.000739066
-0.00113182
-0.000855677
-0.00113217
-0.000972485
-0.00112097
-0.00108609
-0.0010937
-0.00119101
-0.00104597
-0.00127941
-0.00097445
-0.00134143
-0.000878035
-0.00136617
-0.000758901
-0.00134363
-0.000623046
-0.00126731
-0.000479946
-0.00113685
-0.000341128
-0.000959805
-0.000217967
-0.000751598
-0.000119383
-0.000533213
-5.03051e-05
-0.000327342
-1.14177e-05
-0.000154564
-3.13042e-05
-9.5549e-06
0.00013999
-3.4078e-05
0.000354249
-6.98093e-05
0.000513681
-0.000113531
0.00063198
-0.000162687
0.000721964
-0.000215389
0.000793718
-0.00027029
0.000853793
-0.000326388
0.000905455
-0.000382861
0.000949516
-0.00043895
0.000985314
-0.0004939
0.00101152
-0.000546957
0.00102668
-0.000597384
0.00102957
-0.000644506
0.00101935
-0.000687756
0.000995656
-0.000726723
0.000958665
-0.000761184
0.000909044
-0.000791125
0.000847901
-0.000816737
0.000776676
-0.00083839
0.00069701
-0.000856601
0.000610603
-0.000871982
0.000519082
-0.000885197
0.000423889
-0.000896915
0.000326214
-0.000907786
0.000226953
-0.000918411
0.0001267
-0.000929331
2.57596e-05
-0.000941021
-7.58222e-05
-0.000953868
-0.000178235
-0.000968156
-0.000281866
-0.000984013
-0.000387273
-0.00100133
-0.000495132
-0.00101962
-0.000606137
-0.00103786
-0.00072083
-0.00105424
-0.000839299
-0.00106599
-0.000960733
-0.00106927
-0.00108281
-0.00105926
-0.00120101
-0.00103064
-0.00130803
-0.00097848
-0.00139359
-0.000899545
-0.0014451
-0.00079375
-0.00144942
-0.000665295
-0.00139576
-0.000522913
-0.00127923
-0.000378814
-0.0011039
-0.000246367
-0.000884045
-0.00013719
-0.000642389
-5.87844e-05
-0.000405748
-1.36471e-05
-0.000199702
-4.49513e-05
-8.27851e-06
0.000148269
-3.01616e-05
0.000376133
-6.26824e-05
0.000546203
-0.000103015
0.000672313
-0.000148713
0.000767664
-0.000197854
0.000842859
-0.000249001
0.000904941
-0.000301077
0.000957532
-0.000353216
0.00100166
-0.000404647
0.00103675
-0.000454635
0.00106151
-0.000502468
0.00107452
-0.000547475
0.00107458
-0.000589064
0.00106094
-0.000626769
0.00103336
-0.000660289
0.000992185
-0.000689514
0.00093827
-0.000714534
0.000872921
-0.000735626
0.000797768
-0.000753226
0.00071461
-0.000767884
0.000625261
-0.000780217
0.000531415
-0.000790867
0.000434539
-0.000800462
0.000335809
-0.000809594
0.000236085
-0.000818808
0.000135914
-0.000828596
3.5548e-05
-0.000839406
-6.50125e-05
-0.000851637
-0.000166003
-0.000865642
-0.00026786
-0.000881696
-0.000371219
-0.000899933
-0.000476894
-0.000920241
-0.00058583
-0.000942076
-0.000698995
-0.000964229
-0.000817146
-0.000984542
-0.00094042
-0.000999649
-0.0010677
-0.00100487
-0.00119579
-0.000994438
-0.00131846
-0.000962194
-0.00142583
-0.000902907
-0.00150439
-0.000813998
-0.00153833
-0.00069726
-0.0015125
-0.000559858
-0.00141663
-0.000413906
-0.00124986
-0.000274319
-0.00102363
-0.000155445
-0.000761264
-6.77522e-05
-0.00049344
-1.60738e-05
-0.00025138
-6.10251e-05
-6.8205e-06
0.00015509
-2.56244e-05
0.000394938
-5.43447e-05
0.000574924
-9.06334e-05
0.000708603
-0.000132214
0.000809245
-0.000177152
0.000887798
-0.000223941
0.00095173
-0.000271431
0.00100502
-0.000318717
0.00104894
-0.000365031
0.00108306
-0.000409671
0.00110615
-0.000451987
0.00111683
-0.000491394
0.00111399
-0.000527399
0.00109694
-0.000559649
0.00106561
-0.000587954
0.00102049
-0.000612309
0.000962626
-0.000632895
0.000893507
-0.000650054
0.000814927
-0.000664253
0.00072881
-0.000676048
0.000637056
-0.000686028
0.000541396
-0.000694786
0.000443297
-0.00070288
0.000343904
-0.000710825
0.00024403
-0.000719084
0.000144173
-0.000728077
4.4541e-05
-0.000738194
-5.48954e-05
-0.000749809
-0.000154387
-0.00076329
-0.00025438
-0.000778991
-0.000355518
-0.00079722
-0.000458664
-0.000818153
-0.000564897
-0.000841684
-0.000675464
-0.000867193
-0.000791637
-0.000893225
-0.000914387
-0.000917134
-0.0010438
-0.000934771
-0.00117815
-0.000940424
-0.00131281
-0.000927247
-0.00143901
-0.000888375
-0.00154326
-0.000818764
-0.00160794
-0.000717397
-0.00161387
-0.000589103
-0.00154492
-0.00044501
-0.00139395
-0.000300911
-0.00116773
-0.00017368
-0.000888495
-7.70382e-05
-0.000590082
-1.86664e-05
-0.000309752
-7.96915e-05
-5.22955e-06
0.00016032
-2.06011e-05
0.00041031
-4.50189e-05
0.000599343
-7.66908e-05
0.000740276
-0.000113568
0.000846123
-0.000153746
0.000927976
-0.000195658
0.000993642
-0.000238094
0.00104746
-0.000280118
0.00109097
-0.000320971
0.00112391
-0.000360003
0.00114518
-0.00039664
0.00115347
-0.000430396
0.00114774
-0.000460892
0.00112744
-0.000487888
0.00109261
-0.000511305
0.00104391
-0.000531231
0.000982553
-0.000547916
0.000910192
-0.00056174
0.000828751
-0.00057318
0.000740251
-0.000582766
0.000646643
-0.00059104
0.00054967
-0.000598521
0.000450778
-0.000605686
0.000351069
-0.00061296
0.000251304
-0.000620715
0.000151928
-0.000629289
5.3115e-05
-0.000639
-4.51844e-05
-0.00065017
-0.000143217
-0.000663144
-0.000241405
-0.000678301
-0.000340361
-0.000696041
-0.000440924
-0.000716736
-0.000544201
-0.000740619
-0.000651581
-0.00076758
-0.000764676
-0.00079686
-0.000885108
-0.000826635
-0.00101402
-0.000853567
-0.00115122
-0.00087247
-0.00129391
-0.000876384