/*--------------------------------*- C++ -*----------------------------------*\
  =========                 |
  \\      /  F ield         | OpenFOAM: The Open Source CFD Toolbox
   \\    /   O peration     | Website:  https://openfoam.org
    \\  /    A nd           | Version:  7
     \\/     M anipulation  |
\*---------------------------------------------------------------------------*/
FoamFile
{
    version     2.0;
    format      ascii;
    class       volVectorField;
    location    "150";
    object      U;
}
// * * * * * * * * * * * * * * * * * * * * * * * * * * * * * * * * * * * * * //

dimensions      [0 1 -1 0 0 0 0];

internalField   nonuniform List<vector> 
2500
(
(0.000104655 -0.000115716 0)
(0.000474964 -0.000151931 0)
(0.000821727 -0.000125708 0)
(0.000984359 -7.82169e-05 0)
(0.000891216 -3.03989e-05 0)
(0.000538924 1.21963e-05 0)
(-5.46733e-05 4.87083e-05 0)
(-0.000869692 8.05274e-05 0)
(-0.0018908 0.000109819 0)
(-0.00310851 0.000138556 0)
(-0.00451766 0.000168071 0)
(-0.00611441 0.000198952 0)
(-0.00789308 0.00023107 0)
(-0.00984302 0.000263674 0)
(-0.0119462 0.000295478 0)
(-0.014175 0.000324753 0)
(-0.0164912 0.000349402 0)
(-0.0188452 0.00036706 0)
(-0.021176 0.00037521 0)
(-0.0234125 0.000371348 0)
(-0.0254749 0.000353181 0)
(-0.0272783 0.000318876 0)
(-0.0287358 0.000267322 0)
(-0.0297637 0.000198405 0)
(-0.0302868 0.000113262 0)
(-0.0302442 1.44263e-05 0)
(-0.0295948 -9.42214e-05 0)
(-0.0283222 -0.000207401 0)
(-0.0264391 -0.000318793 0)
(-0.0239889 -0.000421456 0)
(-0.0210461 -0.000508387 0)
(-0.0177141 -0.000573188 0)
(-0.0141203 -0.000610758 0)
(-0.0104091 -0.000617905 0)
(-0.00673289 -0.000593784 0)
(-0.00324217 -0.000540043 0)
(-7.53577e-05 -0.000460635 0)
(0.00265045 -0.000361583 0)
(0.00484643 -0.000250342 0)
(0.00645639 -0.000134591 0)
(0.00745846 -2.13757e-05 0)
(0.00786378 8.33517e-05 0)
(0.00771303 0.000175065 0)
(0.00707222 0.000250458 0)
(0.00602977 0.000306531 0)
(0.00469695 0.000339106 0)
(0.00321372 0.000341016 0)
(0.00176695 0.00029949 0)
(0.000622336 0.000191209 0)
(2.96004e-05 2.95798e-05 0)
(0.000152518 -0.000501856 0)
(0.000671628 -0.000694837 0)
(0.000959429 -0.000435018 0)
(0.000754252 1.48993e-05 0)
(-7.69241e-05 0.000517924 0)
(-0.00155426 0.00100996 0)
(-0.00365434 0.00146958 0)
(-0.00634368 0.0018972 0)
(-0.00959203 0.00230148 0)
(-0.0133754 0.00269115 0)
(-0.0176731 0.00307072 0)
(-0.0224618 0.00343888 0)
(-0.0277087 0.00378833 0)
(-0.0333651 0.00410647 0)
(-0.0393615 0.0043764 0)
(-0.0456039 0.00457818 0)
(-0.0519719 0.00469012 0)
(-0.0583192 0.00469028 0)
(-0.0644757 0.00455803 0)
(-0.070252 0.00427588 0)
(-0.0754458 0.00383129 0)
(-0.0798505 0.00321852 0)
(-0.0832649 0.00244035 0)
(-0.0855046 0.00150937 0)
(-0.0864137 0.000448938 0)
(-0.0858756 -0.000706895 0)
(-0.0838248 -0.00191433 0)
(-0.080253 -0.00312134 0)
(-0.0752161 -0.00427064 0)
(-0.0688355 -0.00530317 0)
(-0.0612965 -0.00616218 0)
(-0.0528424 -0.00679772 0)
(-0.0437644 -0.007171 0)
(-0.0343877 -0.00725821 0)
(-0.0250545 -0.00705312 0)
(-0.0161049 -0.00656831 0)
(-0.00785719 -0.00583442 0)
(-0.000589685 -0.00489783 0)
(0.00547558 -0.00381679 0)
(0.0101843 -0.00265585 0)
(0.0134567 -0.00148 0)
(0.0152885 -0.000350398 0)
(0.0157483 0.000678405 0)
(0.0149719 0.00155863 0)
(0.0131574 0.0022448 0)
(0.0105638 0.00268641 0)
(0.00751457 0.00281812 0)
(0.0044173 0.00255296 0)
(0.00181105 0.00180296 0)
(0.000192771 0.000624312 0)
(0.00012839 -0.000838088 0)
(0.000366914 -0.000967424 0)
(4.8695e-05 -0.000199446 0)
(-0.00107483 0.000966407 0)
(-0.0031283 0.00225676 0)
(-0.0061316 0.00353743 0)
(-0.0100605 0.00475792 0)
(-0.0148782 0.00591232 0)
(-0.0205475 0.00701187 0)
(-0.027033 0.00806769 0)
(-0.0342956 0.00908146 0)
(-0.0422852 0.0100416 0)
(-0.0509312 0.0109231 0)
(-0.0601359 0.0116891 0)
(-0.0697682 0.0122937 0)
(-0.079661 0.0126856 0)
(-0.089611 0.0128116 0)
(-0.0993815 0.0126209 0)
(-0.108709 0.0120689 0)
(-0.117309 0.011122 0)
(-0.124893 0.00976129 0)
(-0.131174 0.00798623 0)
(-0.135886 0.00581768 0)
(-0.138795 0.00329961 0)
(-0.139712 0.000499649 0)
(-0.138511 -0.00249203 0)
(-0.135134 -0.00556584 0)
(-0.129597 -0.00859768 0)
(-0.122001 -0.0114551 0)
(-0.112525 -0.0140048 0)
(-0.101428 -0.0161207 0)
(-0.0890374 -0.0176929 0)
(-0.0757414 -0.0186362 0)
(-0.0619702 -0.0188975 0)
(-0.0481787 -0.018461 0)
(-0.0348234 -0.0173514 0)
(-0.0223403 -0.0156331 0)
(-0.011121 -0.0134058 0)
(-0.00149158 -0.0107977 0)
(0.00630417 -0.00795542 0)
(0.0121179 -0.00503301 0)
(0.0159034 -0.00218126 0)
(0.017718 0.000458637 0)
(0.0177179 0.00275717 0)
(0.0161553 0.00459108 0)
(0.0133725 0.00583218 0)
(0.00979997 0.00633316 0)
(0.00597009 0.00591952 0)
(0.0025816 0.00441586 0)
(0.000302639 0.00178006 0)
(6.66338e-05 -0.000944438 0)
(-0.0002653 -0.000607717 0)
(-0.00157575 0.00101497 0)
(-0.00403825 0.00320847 0)
(-0.00771135 0.00557991 0)
(-0.0125892 0.00793461 0)
(-0.0186381 0.0101971 0)
(-0.0258169 0.0123548 0)
(-0.0340833 0.0144176 0)
(-0.0433905 0.016392 0)
(-0.0536792 0.0182676 0)
(-0.0648671 0.0200115 0)
(-0.0768402 0.0215691 0)
(-0.0894455 0.0228671 0)
(-0.102487 0.0238199 0)
(-0.115723 0.0243355 0)
(-0.128876 0.0243234 0)
(-0.141629 0.0237015 0)
(-0.153645 0.0224033 0)
(-0.164575 0.0203852 0)
(-0.174072 0.0176321 0)
(-0.181807 0.014162 0)
(-0.187483 0.0100291 0)
(-0.19085 0.00532518 0)
(-0.191717 0.000178449 0)
(-0.189963 -0.00524932 0)
(-0.185543 -0.0107688 0)
(-0.178499 -0.0161716 0)
(-0.168953 -0.0212398 0)
(-0.157117 -0.025756 0)
(-0.143286 -0.0295157 0)
(-0.12783 -0.0323404 0)
(-0.111187 -0.0340897 0)
(-0.0938463 -0.0346727 0)
(-0.0763316 -0.0340572 0)
(-0.0591779 -0.0322744 0)
(-0.0429068 -0.0294199 0)
(-0.0280013 -0.025649 0)
(-0.0148796 -0.021167 0)
(-0.00387266 -0.0162153 0)
(0.0047942 -0.0110551 0)
(0.0110136 -0.0059519 0)
(0.0148037 -0.00116135 0)
(0.0163081 0.00307515 0)
(0.0157909 0.00652791 0)
(0.0136327 0.00896538 0)
(0.0103219 0.0101378 0)
(0.00646664 0.009765 0)
(0.00287359 0.0075497 0)
(0.000343645 0.00324947 0)
(-1.50304e-05 -0.00066381 0)
(-0.00111367 0.000695319 0)
(-0.00370182 0.00357786 0)
(-0.00782567 0.00710887 0)
(-0.0134315 0.0108169 0)
(-0.0204643 0.0144745 0)
(-0.0288697 0.0179968 0)
(-0.0385977 0.0213694 0)
(-0.0495984 0.0245983 0)
(-0.0618122 0.0276774 0)
(-0.0751565 0.0305731 0)
(-0.0895142 0.0332192 0)
(-0.104725 0.0355196 0)
(-0.120578 0.0373551 0)
(-0.136816 0.0385931 0)
(-0.153132 0.0390979 0)
(-0.169181 0.0387421 0)
(-0.184589 0.0374173 0)
(-0.198969 0.0350436 0)
(-0.21193 0.0315786 0)
(-0.2231 0.0270236 0)
(-0.232132 0.021428 0)
(-0.238723 0.0148915 0)
(-0.242624 0.00756285 0)
(-0.243646 -0.0003622 0)
(-0.241674 -0.00864613 0)
(-0.236668 -0.0170182 0)
(-0.228667 -0.0251853 0)
(-0.217796 -0.0328428 0)
(-0.204265 -0.0396873 0)
(-0.188372 -0.0454322 0)
(-0.170497 -0.0498235 0)
(-0.151096 -0.0526566 0)
(-0.130691 -0.053792 0)
(-0.109851 -0.0531684 0)
(-0.0891742 -0.0508121 0)
(-0.0692574 -0.04684 0)
(-0.0506707 -0.0414563 0)
(-0.0339257 -0.0349417 0)
(-0.0194476 -0.0276368 0)
(-0.00754994 -0.0199203 0)
(0.00158359 -0.0121868 0)
(0.00791159 -0.00482831 0)
(0.0115404 0.00177879 0)
(0.0127199 0.00727464 0)
(0.0118394 0.0113027 0)
(0.00941667 0.0134918 0)
(0.0061074 0.0134364 0)
(0.00278596 0.0106892 0)
(0.000340387 0.00476995 0)
(-0.000111012 9.73716e-05 0)
(-0.00211418 0.00315057 0)
(-0.0061884 0.00775255 0)
(-0.0122109 0.012942 0)
(-0.01998 0.018225 0)
(-0.0293728 0.0233809 0)
(-0.0403043 0.0283385 0)
(-0.0527097 0.0330914 0)
(-0.0665285 0.03764 0)
(-0.0816855 0.0419581 0)
(-0.0980724 0.0459777 0)
(-0.115536 0.049588 0)
(-0.133868 0.0526417 0)
(-0.152808 0.0549673 0)
(-0.172041 0.0563827 0)
(-0.191207 0.0567104 0)
(-0.209917 0.0557922 0)
(-0.227757 0.0535026 0)
(-0.244315 0.0497595 0)
(-0.259184 0.0445334 0)
(-0.271985 0.0378526 0)
(-0.282374 0.0298063 0)
(-0.290049 0.0205437 0)
(-0.294765 0.0102723 0)
(-0.29633 -0.000747337 0)
(-0.29462 -0.0122067 0)
(-0.289578 -0.0237591 0)
(-0.28122 -0.0350314 0)
(-0.269641 -0.0456344 0)
(-0.255022 -0.0551781 0)
(-0.237634 -0.0632883 0)
(-0.21784 -0.0696263 0)
(-0.196092 -0.0739097 0)
(-0.172927 -0.0759338 0)
(-0.148948 -0.0755906 0)
(-0.124809 -0.0728834 0)
(-0.101186 -0.067935 0)
(-0.0787406 -0.0609875 0)
(-0.0580901 -0.0523913 0)
(-0.0397682 -0.0425869 0)
(-0.0241937 -0.032078 0)
(-0.011644 -0.0214028 0)
(-0.0022378 -0.0111065 0)
(0.00407453 -0.0017221 0)
(0.00751155 0.0062359 0)
(0.00845171 0.0122665 0)
(0.00742497 0.0158576 0)
(0.00511584 0.0164614 0)
(0.00243314 0.0134675 0)
(0.000310596 0.00616799 0)
(-0.000218123 0.00140425 0)
(-0.00322354 0.00690536 0)
(-0.00892878 0.0137251 0)
(-0.0170105 0.0209003 0)
(-0.0270934 0.0279821 0)
(-0.0389736 0.0348044 0)
(-0.0525277 0.0413385 0)
(-0.0676717 0.0475978 0)
(-0.0843309 0.0535775 0)
(-0.102411 0.0592238 0)
(-0.121778 0.0644249 0)
(-0.142241 0.0690158 0)
(-0.163552 0.0727919 0)
(-0.185402 0.075527 0)
(-0.207436 0.0769918 0)
(-0.229259 0.0769735 0)
(-0.250452 0.0752927 0)
(-0.270588 0.0718175 0)
(-0.289247 0.0664744 0)
(-0.306027 0.0592557 0)
(-0.320554 0.0502222 0)
(-0.332491 0.0395038 0)
(-0.341542 0.027297 0)
(-0.347456 0.013861 0)
(-0.350029 -0.000487391 0)
(-0.34911 -0.0153795 0)
(-0.344605 -0.0304022 0)
(-0.336484 -0.0451087 0)
(-0.32479 -0.0590292 0)
(-0.309649 -0.0716851 0)
(-0.291282 -0.0826078 0)
(-0.270011 -0.0913613 0)
(-0.246263 -0.0975679 0)
(-0.22057 -0.100936 0)
(-0.19356 -0.101285 0)
(-0.165937 -0.0985727 0)
(-0.138457 -0.0929049 0)
(-0.111887 -0.0845447 0)
(-0.0869653 -0.0739031 0)
(-0.0643554 -0.0615188 0)
(-0.0446052 -0.0480276 0)
(-0.0281099 -0.0341255 0)
(-0.0150866 -0.0205312 0)
(-0.0055605 -0.00795754 0)
(0.000637888 0.00290481 0)
(0.0038643 0.0113858 0)
(0.00464866 0.016814 0)
(0.00369171 0.0184862 0)
(0.00191383 0.0156279 0)
(0.000267982 0.00733549 0)
(-0.000333581 0.00330409 0)
(-0.00440573 0.01206 0)
(-0.01183 0.0216154 0)
(-0.02206 0.0311002 0)
(-0.0345303 0.0401871 0)
(-0.048948 0.0488184 0)
(-0.065147 0.0570394 0)
(-0.0830206 0.0648966 0)
(-0.102477 0.072381 0)
(-0.123401 0.0794056 0)
(-0.145632 0.0858067 0)
(-0.168945 0.0913595 0)
(-0.193058 0.0957996 0)
(-0.217627 0.0988482 0)
(-0.24227 0.100235 0)
(-0.266573 0.099722 0)
(-0.290109 0.0971181 0)
(-0.312453 0.0922955 0)
(-0.333193 0.0851973 0)
(-0.35194 0.075841 0)
(-0.368333 0.0643197 0)
(-0.382042 0.0507994 0)
(-0.392771 0.0355155 0)
(-0.400258 0.0187678 0)
(-0.404275 0.000916917 0)
(-0.404636 -0.0176208 0)
(-0.401197 -0.0363771 0)
(-0.393868 -0.0548403 0)
(-0.382624 -0.0724641 0)
(-0.36752 -0.0886813 0)
(-0.348703 -0.102923 0)
(-0.326429 -0.114643 0)
(-0.301075 -0.123349 0)
(-0.273146 -0.128635 0)
(-0.24327 -0.13022 0)
(-0.212191 -0.12798 0)
(-0.18074 -0.121977 0)
(-0.149794 -0.112468 0)
(-0.120232 -0.0999075 0)
(-0.0928727 -0.0849277 0)
(-0.0684248 -0.0683016 0)
(-0.0474333 -0.0508986 0)
(-0.0302444 -0.0336344 0)
(-0.0169831 -0.0174285 0)
(-0.00754753 -0.00317655 0)
(-0.00161764 0.00825654 0)
(0.00132602 0.0160216 0)
(0.00199311 0.0192473 0)
(0.00130427 0.0169992 0)
(0.000222704 0.00821163 0)
(-0.00045432 0.00582707 0)
(-0.00562492 0.0186704 0)
(-0.0148013 0.0314806 0)
(-0.0272003 0.0435858 0)
(-0.0420574 0.0548634 0)
(-0.0589881 0.0654211 0)
(-0.0777812 0.075411 0)
(-0.0983052 0.0849269 0)
(-0.120449 0.0939568 0)
(-0.144077 0.102376 0)
(-0.169001 0.109965 0)
(-0.194969 0.116436 0)
(-0.221671 0.121467 0)
(-0.248744 0.124732 0)
(-0.275789 0.12593 0)
(-0.302391 0.124804 0)
(-0.328127 0.121164 0)
(-0.352587 0.114894 0)
(-0.375373 0.105954 0)
(-0.396115 0.0943889 0)
(-0.414463 0.0803184 0)
(-0.430094 0.0639368 0)
(-0.442711 0.0455078 0)
(-0.452037 0.0253605 0)
(-0.45782 0.00388638 0)
(-0.459838 -0.0184629 0)
(-0.457902 -0.0411763 0)
(-0.451857 -0.0636881 0)
(-0.441606 -0.0853842 0)
(-0.427116 -0.105613 0)
(-0.408444 -0.123705 0)
(-0.385754 -0.138994 0)
(-0.359338 -0.150855 0)
(-0.329637 -0.158743 0)
(-0.297247 -0.162239 0)
(-0.26292 -0.161099 0)
(-0.227542 -0.155295 0)
(-0.192098 -0.145041 0)
(-0.157616 -0.130808 0)
(-0.125098 -0.113305 0)
(-0.09545 -0.093443 0)
(-0.0694104 -0.0722801 0)
(-0.0474966 -0.0509564 0)
(-0.0299703 -0.0306321 0)
(-0.0168254 -0.0124433 0)
(-0.00779653 0.00251856 0)
(-0.00238295 0.0132 0)
(0.000127618 0.0185501 0)
(0.000655811 0.0174746 0)
(0.000181331 0.00876974 0)
(-0.000576476 0.00898471 0)
(-0.00684258 0.0267471 0)
(-0.0177494 0.0433163 0)
(-0.0322712 0.0583314 0)
(-0.0494439 0.0719615 0)
(-0.0687917 0.084538 0)
(-0.0900583 0.0963528 0)
(-0.113086 0.10756 0)
(-0.137743 0.118148 0)
(-0.163873 0.127951 0)
(-0.191264 0.136691 0)
(-0.219643 0.144021 0)
(-0.24868 0.149563 0)
(-0.278002 0.152954 0)
(-0.307208 0.153869 0)
(-0.335889 0.152046 0)
(-0.363637 0.1473 0)
(-0.390057 0.139527 0)
(-0.414771 0.12871 0)
(-0.437425 0.114914 0)
(-0.457683 0.0982818 0)
(-0.47523 0.079028 0)
(-0.489768 0.0574365 0)
(-0.501019 0.0338558 0)
(-0.508717 0.00869808 0)
(-0.512617 -0.0175615 0)
(-0.512494 -0.0443826 0)
(-0.508144 -0.0711612 0)
(-0.499395 -0.09723 0)
(-0.486126 -0.121867 0)
(-0.468286 -0.144308 0)
(-0.445918 -0.163769 0)
(-0.419194 -0.179483 0)
(-0.388442 -0.190739 0)
(-0.354174 -0.196946 0)
(-0.3171 -0.19769 0)
(-0.27812 -0.192798 0)
(-0.2383 -0.182388 0)
(-0.198815 -0.166895 0)
(-0.160867 -0.147075 0)
(-0.125599 -0.123967 0)
(-0.0939933 -0.0988267 0)
(-0.0667972 -0.0730486 0)
(-0.044462 -0.0480758 0)
(-0.0271199 -0.0253308 0)
(-0.0145893 -0.00617438 0)
(-0.00640397 0.00809997 0)
(-0.00185129 0.0162406 0)
(-5.27236e-06 0.0169863 0)
(0.000147072 0.00900383 0)
(-0.000695437 0.0127678 0)
(-0.008017 0.036254 0)
(-0.0205773 0.0570572 0)
(-0.0371114 0.0752441 0)
(-0.0564614 0.091363 0)
(-0.0780639 0.106026 0)
(-0.101618 0.119697 0)
(-0.126939 0.132604 0)
(-0.153874 0.144735 0)
(-0.182245 0.155887 0)
(-0.211823 0.165724 0)
(-0.242316 0.173839 0)
(-0.273382 0.17981 0)
(-0.304647 0.183243 0)
(-0.335713 0.183798 0)
(-0.366183 0.181213 0)
(-0.395663 0.175311 0)
(-0.423775 0.166005 0)
(-0.45016 0.153298 0)
(-0.474479 0.137274 0)
(-0.496412 0.118093 0)
(-0.515659 0.0959883 0)
(-0.53194 0.07126 0)
(-0.544987 0.044271 0)
(-0.554545 0.0154462 0)
(-0.560367 -0.0147268 0)
(-0.562217 -0.0456939 0)
(-0.559859 -0.0768332 0)
(-0.553063 -0.107447 0)
(-0.541621 -0.136767 0)
(-0.525368 -0.163955 0)
(-0.504204 -0.188125 0)
(-0.478142 -0.208366 0)
(-0.447344 -0.223793 0)
(-0.412172 -0.233606 0)
(-0.373224 -0.237172 0)
(-0.331347 -0.234106 0)
(-0.287634 -0.224351 0)
(-0.243373 -0.208238 0)
(-0.199969 -0.186511 0)
(-0.158827 -0.1603 0)
(-0.121234 -0.13106 0)
(-0.0882339 -0.100464 0)
(-0.060541 -0.0702861 0)
(-0.0384888 -0.042296 0)
(-0.0220253 -0.018183 0)
(-0.0107448 0.000470203 0)
(-0.00394203 0.0121738 0)
(-0.000676359 0.01548 0)
(0.000120319 0.00891531 0)
(-0.000805918 0.0171447 0)
(-0.00910434 0.047107 0)
(-0.0231865 0.0725782 0)
(-0.0415611 0.0941672 0)
(-0.062888 0.112885 0)
(-0.0865214 0.12968 0)
(-0.112116 0.145216 0)
(-0.139461 0.159804 0)
(-0.168381 0.173442 0)
(-0.198678 0.185886 0)
(-0.230106 0.196746 0)
(-0.26236 0.205562 0)
(-0.295093 0.211875 0)
(-0.327928 0.215264 0)
(-0.360477 0.215382 0)
(-0.392349 0.21197 0)
(-0.423166 0.204864 0)
(-0.452563 0.193994 0)
(-0.480197 0.179381 0)
(-0.505747 0.161129 0)
(-0.528918 0.139422 0)
(-0.549441 0.114511 0)
(-0.567067 0.0867144 0)
(-0.581567 0.0564081 0)
(-0.592723 0.0240252 0)
(-0.600315 -0.00994485 0)
(-0.604124 -0.0449517 0)
(-0.60391 -0.0803794 0)
(-0.599407 -0.115531 0)
(-0.590339 -0.149625 0)
(-0.576426 -0.181786 0)
(-0.557421 -0.211054 0)
(-0.533145 -0.236398 0)
(-0.503548 -0.256758 0)
(-0.468772 -0.27111 0)
(-0.429216 -0.278552 0)
(-0.385584 -0.278417 0)
(-0.338907 -0.270382 0)
(-0.290521 -0.254572 0)
(-0.241993 -0.231624 0)
(-0.195004 -0.202695 0)
(-0.151185 -0.169407 0)
(-0.111956 -0.133723 0)
(-0.0783849 -0.0978005 0)
(-0.0510928 -0.0638274 0)
(-0.0302264 -0.0339027 0)
(-0.0154847 -0.00997013 0)
(-0.0061875 0.00618523 0)
(-0.00137469 0.0128902 0)
(9.90729e-05 0.00850139 0)
(-0.000902422 0.02206 0)
(-0.0100605 0.0591742 0)
(-0.0254806 0.0896972 0)
(-0.0454663 0.114885 0)
(-0.0685136 0.136287 0)
(-0.0938995 0.155236 0)
(-0.121236 0.172621 0)
(-0.150282 0.188852 0)
(-0.180841 0.203937 0)
(-0.212697 0.217595 0)
(-0.245586 0.229386 0)
(-0.279194 0.238804 0)
(-0.313168 0.245355 0)
(-0.347132 0.248602 0)
(-0.380699 0.248192 0)
(-0.413488 0.243872 0)
(-0.445126 0.235492 0)
(-0.475261 0.223001 0)
(-0.503568 0.206444 0)
(-0.529752 0.185954 0)
(-0.553553 0.161741 0)
(-0.574747 0.134086 0)
(-0.593143 0.103331 0)
(-0.608575 0.0698676 0)
(-0.620885 0.0341341 0)
(-0.629913 -0.00338802 0)
(-0.635486 -0.0421686 0)
(-0.63739 -0.0816237 0)
(-0.635356 -0.121093 0)
(-0.629064 -0.159823 0)
(-0.618145 -0.196948 0)
(-0.602207 -0.23148 0)
(-0.580875 -0.262311 0)
(-0.553853 -0.288233 0)
(-0.521004 -0.308 0)
(-0.482444 -0.320416 0)
(-0.438621 -0.324464 0)
(-0.39039 -0.319454 0)
(-0.339023 -0.305182 0)
(-0.286175 -0.282047 0)
(-0.233758 -0.251118 0)
(-0.183769 -0.214107 0)
(-0.138073 -0.173255 0)
(-0.0981912 -0.131135 0)
(-0.0651433 -0.0904379 0)
(-0.0393729 -0.0537745 0)
(-0.0207524 -0.0235512 0)
(-0.00866307 -0.00193165 0)
(-0.00213209 0.00912129 0)
(7.96558e-05 0.00774591 0)
(-0.000979488 0.0274351 0)
(-0.0108435 0.0722782 0)
(-0.027369 0.108179 0)
(-0.0486856 0.137128 0)
(-0.073147 0.161276 0)
(-0.09996 0.182381 0)
(-0.128693 0.201579 0)
(-0.159074 0.219391 0)
(-0.190882 0.235838 0)
(-0.223884 0.250611 0)
(-0.257798 0.26322 0)
(-0.292302 0.273119 0)
(-0.327035 0.279786 0)
(-0.361619 0.282767 0)
(-0.395666 0.281708 0)
(-0.428796 0.276364 0)
(-0.460642 0.266603 0)
(-0.490866 0.2524 0)
(-0.519163 0.233833 0)
(-0.545273 0.211072 0)
(-0.568987 0.184372 0)
(-0.590142 0.154053 0)
(-0.608623 0.120489 0)
(-0.624346 0.0840936 0)
(-0.637241 0.0453081 0)
(-0.647227 0.00459869 0)
(-0.654201 -0.0375406 0)
(-0.65801 -0.0805796 0)
(-0.658414 -0.12393 0)
(-0.655086 -0.166911 0)
(-0.647602 -0.208719 0)
(-0.635458 -0.248402 0)
(-0.618099 -0.28483 0)
(-0.594981 -0.316706 0)
(-0.565655 -0.342594 0)
(-0.529881 -0.361007 0)
(-0.487751 -0.370537 0)
(-0.439806 -0.370039 0)
(-0.38711 -0.358838 0)
(-0.331268 -0.33693 0)
(-0.274335 -0.30513 0)
(-0.218644 -0.265107 0)
(-0.166537 -0.219306 0)
(-0.120085 -0.170725 0)
(-0.0808366 -0.122634 0)
(-0.0496583 -0.0782766 0)
(-0.026698 -0.0406578 0)
(-0.0114612 -0.012439 0)
(-0.00298855 0.00403495 0)
(5.72988e-05 0.00661327 0)
(-0.00103228 0.0331696 0)
(-0.0114156 0.0862 0)
(-0.0287718 0.127742 0)
(-0.051095 0.16058 0)
(-0.0766232 0.187514 0)
(-0.104499 0.210757 0)
(-0.134245 0.231713 0)
(-0.165558 0.251021 0)
(-0.198192 0.268725 0)
(-0.23189 0.284488 0)
(-0.266358 0.297779 0)
(-0.30126 0.308014 0)
(-0.336227 0.314644 0)
(-0.370874 0.317203 0)
(-0.40481 0.315338 0)
(-0.437653 0.308816 0)
(-0.469043 0.297529 0)
(-0.498657 0.281487 0)
(-0.526221 0.260816 0)
(-0.55152 0.235741 0)
(-0.574406 0.206573 0)
(-0.594795 0.173685 0)
(-0.612655 0.137495 0)
(-0.628 0.0984431 0)
(-0.640856 0.0569745 0)
(-0.651238 0.0135345 0)
(-0.659134 -0.0314309 0)
(-0.66447 -0.0774632 0)
(-0.667068 -0.124074 0)
(-0.666632 -0.170695 0)
(-0.662732 -0.216639 0)
(-0.654802 -0.26105 0)
(-0.642154 -0.302858 0)
(-0.624026 -0.340751 0)
(-0.599665 -0.373176 0)
(-0.568444 -0.398397 0)
(-0.530015 -0.414616 0)
(-0.484477 -0.420171 0)
(-0.432521 -0.413791 0)
(-0.375523 -0.394885 0)
(-0.315527 -0.363794 0)
(-0.255096 -0.321945 0)
(-0.197035 -0.271838 0)
(-0.14403 -0.216844 0)
(-0.0982841 -0.160861 0)
(-0.0612413 -0.107897 0)
(-0.0334624 -0.0617207 0)
(-0.0146744 -0.0256543 0)
(-0.0039856 -0.00255336 0)
(2.68677e-05 0.00504625 0)
(-0.0010568 0.0391442 0)
(-0.0117462 0.100685 0)
(-0.0296234 0.148063 0)
(-0.0525935 0.184887 0)
(-0.078809 0.214629 0)
(-0.107354 0.239975 0)
(-0.137705 0.262615 0)
(-0.169521 0.283315 0)
(-0.20253 0.302147 0)
(-0.236453 0.318753 0)
(-0.27098 0.332564 0)
(-0.30576 0.342961 0)
(-0.340415 0.349371 0)
(-0.374549 0.35132 0)
(-0.407767 0.348456 0)
(-0.439688 0.340567 0)
(-0.469962 0.327578 0)
(-0.49829 0.30955 0)
(-0.524437 0.28667 0)
(-0.548243 0.259234 0)
(-0.569631 0.227624 0)
(-0.588597 0.192281 0)
(-0.605205 0.153674 0)
(-0.619561 0.112274 0)
(-0.631791 0.0685319 0)
(-0.642009 0.022869 0)
(-0.650297 -0.0243235 0)
(-0.656671 -0.0726694 0)
(-0.661041 -0.121797 0)
(-0.663176 -0.171278 0)
(-0.662688 -0.220586 0)
(-0.659011 -0.269023 0)
(-0.651394 -0.315655 0)
(-0.638928 -0.35925 0)
(-0.620603 -0.398239 0)
(-0.595426 -0.430726 0)
(-0.562575 -0.45458 0)
(-0.521613 -0.467614 0)
(-0.472701 -0.467874 0)
(-0.416783 -0.454006 0)
(-0.355677 -0.425634 0)
(-0.292001 -0.383666 0)
(-0.228925 -0.330422 0)
(-0.169755 -0.269506 0)
(-0.117453 -0.205432 0)
(-0.0742027 -0.143085 0)
(-0.0411501 -0.0871914 0)
(-0.0183809 -0.0419396 0)
(-0.00516058 -0.0108716 0)
(-1.64296e-05 0.002967 0)
(-0.00105043 0.0452252 0)
(-0.0118129 0.115452 0)
(-0.0298761 0.168792 0)
(-0.053108 0.209667 0)
(-0.0796084 0.242221 0)
(-0.108409 0.269624 0)
(-0.138939 0.293856 0)
(-0.170818 0.315823 0)
(-0.203742 0.335634 0)
(-0.237411 0.352913 0)
(-0.271496 0.367059 0)
(-0.305633 0.377421 0)
(-0.339434 0.383405 0)
(-0.372494 0.384528 0)
(-0.404415 0.38045 0)
(-0.434823 0.370986 0)
(-0.463387 0.356109 0)
(-0.48984 0.335943 0)
(-0.513995 0.310755 0)
(-0.535755 0.280925 0)
(-0.555117 0.246921 0)
(-0.57216 0.209258 0)
(-0.587031 0.16846 0)
(-0.599927 0.125034 0)
(-0.611061 0.0794361 0)
(-0.620634 0.0320635 0)
(-0.628815 -0.0167483 0)
(-0.635709 -0.0667082 0)
(-0.641323 -0.117565 0)
(-0.645514 -0.169046 0)
(-0.64798 -0.220806 0)
(-0.648214 -0.272352 0)
(-0.645485 -0.322958 0)
(-0.638828 -0.371567 0)
(-0.627074 -0.416713 0)
(-0.608933 -0.456471 0)
(-0.583144 -0.488487 0)
(-0.548697 -0.510117 0)
(-0.505106 -0.518704 0)
(-0.452694 -0.512001 0)
(-0.392804 -0.488672 0)
(-0.327865 -0.44879 0)
(-0.261221 -0.394164 0)
(-0.196718 -0.328374 0)
(-0.138124 -0.256443 0)
(-0.088513 -0.184195 0)
(-0.0498082 -0.117505 0)
(-0.0226337 -0.0616808 0)
(-0.00654247 -0.0211798 0)
(-7.66099e-05 0.000280177 0)
(-0.00101197 0.051269 0)
(-0.0116038 0.1302 0)
(-0.0295024 0.189555 0)
(-0.0525958 0.234519 0)
(-0.0789666 0.269877 0)
(-0.107602 0.299277 0)
(-0.13788 0.324999 0)
(-0.169378 0.348094 0)
(-0.20176 0.368716 0)
(-0.234703 0.386482 0)
(-0.267861 0.40076 0)
(-0.300857 0.410872 0)
(-0.333295 0.416206 0)
(-0.364767 0.416277 0)
(-0.39488 0.410764 0)
(-0.423274 0.399521 0)
(-0.449647 0.382581 0)
(-0.473773 0.36015 0)
(-0.495522 0.332584 0)
(-0.514864 0.300361 0)
(-0.531866 0.26404 0)
(-0.546682 0.224213 0)
(-0.559535 0.181465 0)
(-0.57069 0.136331 0)
(-0.580429 0.0892759 0)
(-0.589019 0.0406724 0)
(-0.596696 -0.00919604 0)
(-0.603644 -0.0601187 0)
(-0.609958 -0.111957 0)
(-0.615592 -0.164588 0)
(-0.620355 -0.217855 0)
(-0.623853 -0.271491 0)
(-0.625446 -0.325021 0)
(-0.624218 -0.37765 0)
(-0.618958 -0.428133 0)
(-0.608206 -0.474668 0)
(-0.590355 -0.514843 0)
(-0.563867 -0.545698 0)
(-0.527563 -0.563946 0)
(-0.481 -0.566397 0)
(-0.424812 -0.550567 0)
(-0.360945 -0.515363 0)
(-0.292644 -0.461679 0)
(-0.224112 -0.392695 0)
(-0.159879 -0.313697 0)
(-0.104013 -0.231413 0)
(-0.0594135 -0.153032 0)
(-0.0274542 -0.0852599 0)
(-0.00815012 -0.0337558 0)
(-0.000156986 -0.0031225 0)
(-0.000941979 0.0571287 0)
(-0.0111177 0.14462 0)
(-0.028497 0.20997 0)
(-0.0510468 0.25903 0)
(-0.0768711 0.297175 0)
(-0.10492 0.328509 0)
(-0.134522 0.355609 0)
(-0.165207 0.379681 0)
(-0.196608 0.400936 0)
(-0.228377 0.41899 0)
(-0.260155 0.433189 0)
(-0.291556 0.442831 0)
(-0.322182 0.447291 0)
(-0.351629 0.446093 0)
(-0.37952 0.438941 0)
(-0.405519 0.425742 0)
(-0.429362 0.406603 0)
(-0.450876 0.381821 0)
(-0.469991 0.351856 0)
(-0.486739 0.317288 0)
(-0.501256 0.278766 0)
(-0.513757 0.236961 0)
(-0.524519 0.192507 0)
(-0.533855 0.14597 0)
(-0.542091 0.0978174 0)
(-0.549535 0.0483992 0)
(-0.556461 -0.00204716 0)
(-0.563111 -0.0533822 0)
(-0.569649 -0.105561 0)
(-0.57612 -0.158592 0)
(-0.582449 -0.21249 0)
(-0.588382 -0.267208 0)
(-0.593432 -0.322543 0)
(-0.596818 -0.37801 0)
(-0.597414 -0.432688 0)
(-0.593734 -0.485048 0)
(-0.583982 -0.532815 0)
(-0.566207 -0.572919 0)
(-0.538591 -0.601608 0)
(-0.499857 -0.614821 0)
(-0.449747 -0.608826 0)
(-0.389435 -0.581083 0)
(-0.321731 -0.531134 0)
(-0.250908 -0.461269 0)
(-0.182108 -0.376641 0)
(-0.120413 -0.284698 0)
(-0.0698665 -0.19403 0)
(-0.0328289 -0.113023 0)
(-0.00999151 -0.0488785 0)
(-0.000260467 -0.00735668 0)
(-0.000842559 0.0626599 0)
(-0.0103647 0.158406 0)
(-0.0268762 0.229655 0)
(-0.0484837 0.282794 0)
(-0.0733524 0.323701 0)
(-0.100407 0.356902 0)
(-0.128923 0.385264 0)
(-0.158387 0.410159 0)
(-0.188396 0.431864 0)
(-0.218582 0.450006 0)
(-0.248575 0.463916 0)
(-0.277989 0.472877 0)
(-0.30643 0.476258 0)
(-0.333511 0.473599 0)
(-0.358879 0.464643 0)
(-0.382236 0.44936 0)
(-0.403365 0.427943 0)
(-0.422151 0.400791 0)
(-0.438581 0.368467 0)
(-0.45275 0.331656 0)
(-0.464846 0.291094 0)
(-0.47513 0.247519 0)
(-0.483914 0.20161 0)
(-0.491536 0.153954 0)
(-0.498337 0.105013 0)
(-0.504639 0.0551187 0)
(-0.510728 0.00446875 0)
(-0.516878 -0.0468571 0)
(-0.523291 -0.098884 0)
(-0.530087 -0.151723 0)
(-0.537295 -0.205527 0)
(-0.544805 -0.260441 0)
(-0.55231 -0.316518 0)
(-0.559229 -0.373601 0)
(-0.564624 -0.431151 0)
(-0.567132 -0.488039 0)
(-0.564943 -0.542321 0)
(-0.555879 -0.591058 0)
(-0.537616 -0.630291 0)
(-0.508093 -0.655274 0)
(-0.46606 -0.661066 0)
(-0.411682 -0.6435 0)
(-0.346984 -0.600361 0)
(-0.275945 -0.532485 0)
(-0.204045 -0.444338 0)
(-0.137296 -0.343729 0)
(-0.0809924 -0.240596 0)
(-0.0387083 -0.145248 0)
(-0.0120635 -0.06681 0)
(-0.000389617 -0.0125399 0)
(-0.000717421 0.0677269 0)
(-0.00936553 0.171264 0)
(-0.0246783 0.248241 0)
(-0.0449612 0.305412 0)
(-0.0684821 0.349054 0)
(-0.0941524 0.384057 0)
(-0.121201 0.41357 0)
(-0.149067 0.439135 0)
(-0.177313 0.461111 0)
(-0.205556 0.479148 0)
(-0.23342 0.492575 0)
(-0.260526 0.500665 0)
(-0.286496 0.502796 0)
(-0.310971 0.498529 0)
(-0.333633 0.48766 0)
(-0.354231 0.470231 0)
(-0.372604 0.446529 0)
(-0.388691 0.417056 0)
(-0.402539 0.382483 0)
(-0.414293 0.343588 0)
(-0.42418 0.301188 0)
(-0.43249 0.256076 0)
(-0.439547 0.208963 0)
(-0.445692 0.160444 0)
(-0.451259 0.110975 0)
(-0.456558 0.060864 0)
(-0.461866 0.0102774 0)
(-0.467454 -0.0407496 0)
(-0.473545 -0.0922915 0)
(-0.480303 -0.144528 0)
(-0.487838 -0.197709 0)
(-0.496166 -0.252126 0)
(-0.505158 -0.308049 0)
(-0.514459 -0.365621 0)
(-0.523386 -0.424705 0)
(-0.530818 -0.484647 0)
(-0.535103 -0.543989 0)
(-0.534046 -0.600176 0)
(-0.52503 -0.649345 0)
(-0.505354 -0.686364 0)
(-0.472806 -0.705276 0)
(-0.42639 -0.700258 0)
(-0.367041 -0.667028 0)
(-0.298039 -0.604402 0)
(-0.224834 -0.515482 0)
(-0.154151 -0.407874 0)
(-0.0925472 -0.292625 0)
(-0.0450086 -0.182111 0)
(-0.0143519 -0.0877785 0)
(-0.000546407 -0.018786 0)
(-0.000571472 0.0722082 0)
(-0.00815063 0.182923 0)
(-0.0219613 0.265382 0)
(-0.0405633 0.326511 0)
(-0.0623695 0.372853 0)
(-0.0862946 0.409601 0)
(-0.111525 0.440161 0)
(-0.137455 0.466254 0)
(-0.163617 0.488335 0)
(-0.189612 0.506093 0)
(-0.215068 0.518866 0)
(-0.239621 0.525935 0)
(-0.262921 0.526688 0)
(-0.284646 0.520726 0)
(-0.304525 0.507901 0)
(-0.322361 0.488338 0)
(-0.338048 0.462419 0)
(-0.351582 0.43075 0)
(-0.363059 0.3941 0)
(-0.372663 0.353334 0)
(-0.380645 0.309333 0)
(-0.387305 0.262931 0)
(-0.392963 0.214859 0)
(-0.397942 0.16571 0)
(-0.40255 0.115924 0)
(-0.407069 0.0657874 0)
(-0.411748 0.0154377 0)
(-0.416833 -0.0351186 0)
(-0.422545 -0.0859865 0)
(-0.429068 -0.137383 0)
(-0.436558 -0.189614 0)
(-0.445128 -0.243066 0)
(-0.454802 -0.298164 0)
(-0.46544 -0.355304 0)
(-0.476636 -0.414714 0)
(-0.487583 -0.476234 0)
(-0.496923 -0.538996 0)
(-0.502645 -0.601034 0)
(-0.50208 -0.658895 0)
(-0.492126 -0.707436 0)
(-0.469748 -0.74002 0)
(-0.432773 -0.749325 0)
(-0.380829 -0.72885 0)
(-0.316112 -0.674899 0)
(-0.243601 -0.588463 0)
(-0.170405 -0.476195 0)
(-0.104232 -0.349786 0)
(-0.0516144 -0.223666 0)
(-0.0168312 -0.111961 0)
(-0.000732023 -0.0262004 0)
(-0.00041064 0.0760015 0)
(-0.00675857 0.193144 0)
(-0.0188007 0.28076 0)
(-0.0354004 0.345743 0)
(-0.0551575 0.394751 0)
(-0.0770102 0.433196 0)
(-0.100111 0.464716 0)
(-0.123812 0.491211 0)
(-0.147617 0.513251 0)
(-0.171118 0.53058 0)
(-0.193951 0.542565 0)
(-0.21578 0.548502 0)
(-0.23629 0.547808 0)
(-0.255205 0.540126 0)
(-0.272309 0.525375 0)
(-0.287463 0.503763 0)
(-0.300616 0.475769 0)
(-0.311814 0.442093 0)
(-0.321191 0.403595 0)
(-0.328957 0.36121 0)
(-0.335375 0.31587 0)
(-0.340735 0.268434 0)
(-0.34534 0.219639 0)
(-0.349479 0.170066 0)
(-0.353426 0.120136 0)
(-0.35742 0.0701085 0)
(-0.361671 0.0200986 0)
(-0.366388 -0.0299063 0)
(-0.371773 -0.0800247 0)
(-0.378006 -0.130486 0)
(-0.385262 -0.181616 0)
(-0.393716 -0.233845 0)
(-0.403501 -0.287694 0)
(-0.414657 -0.343735 0)
(-0.427037 -0.402498 0)
(-0.440164 -0.46428 0)
(-0.453055 -0.52883 0)
(-0.464037 -0.594909 0)
(-0.47063 -0.659747 0)
(-0.469603 -0.718592 0)
(-0.457347 -0.764563 0)
(-0.430631 -0.789182 0)
(-0.387681 -0.783791 0)
(-0.329297 -0.741833 0)
(-0.259541 -0.661461 0)
(-0.185469 -0.547481 0)
(-0.115715 -0.411515 0)
(-0.0583856 -0.269817 0)
(-0.0194661 -0.139472 0)
(-0.000946679 -0.0348748 0)
(-0.000241358 0.0790275 0)
(-0.00523411 0.201728 0)
(-0.015286 0.294103 0)
(-0.029605 0.362801 0)
(-0.0470177 0.414435 0)
(-0.0665088 0.454541 0)
(-0.0872093 0.486951 0)
(-0.108434 0.513747 0)
(-0.129661 0.535625 0)
(-0.150478 0.55241 0)
(-0.170537 0.563511 0)
(-0.189533 0.568258 0)
(-0.207197 0.566103 0)
(-0.223308 0.556741 0)
(-0.237707 0.540162 0)
(-0.250311 0.516655 0)
(-0.261123 0.486789 0)
(-0.270231 0.451352 0)
(-0.277796 0.411275 0)
(-0.284039 0.367551 0)
(-0.289218 0.321146 0)
(-0.293608 0.27293 0)
(-0.297476 0.223635 0)
(-0.301075 0.173822 0)
(-0.304632 0.123887 0)
(-0.308344 0.0740643 0)
(-0.312375 0.0244491 0)
(-0.316893 -0.0249828 0)
(-0.322069 -0.0743518 0)
(-0.328064 -0.123881 0)
(-0.335052 -0.173889 0)
(-0.34323 -0.22481 0)
(-0.352802 -0.2772 0)
(-0.363937 -0.331737 0)
(-0.376696 -0.389164 0)
(-0.390904 -0.450155 0)
(-0.405971 -0.515039 0)
(-0.420657 -0.58335 0)
(-0.432853 -0.6532 0)
(-0.439477 -0.720584 0)
(-0.436652 -0.778877 0)
(-0.420326 -0.818937 0)
(-0.387381 -0.830232 0)
(-0.337027 -0.803216 0)
(-0.271991 -0.732579 0)
(-0.198799 -0.620314 0)
(-0.126653 -0.477033 0)
(-0.0651666 -0.320321 0)
(-0.0222129 -0.170349 0)
(-0.00118946 -0.0448825 0)
(-7.02895e-05 0.0812326 0)