/*--------------------------------*- C++ -*----------------------------------*\
  =========                 |
  \\      /  F ield         | OpenFOAM: The Open Source CFD Toolbox
   \\    /   O peration     | Website:  https://openfoam.org
    \\  /    A nd           | Version:  7
     \\/     M anipulation  |
\*---------------------------------------------------------------------------*/
FoamFile
{
    version     2.0;
    format      ascii;
    class       volScalarField;
    location    "250";
    object      p;
}
// * * * * * * * * * * * * * * * * * * * * * * * * * * * * * * * * * * * * * //

dimensions      [0 2 -2 0 0 0 0];

internalField   nonuniform List<scalar> 
2500
(
1.52768e-06
7.38016e-05
-7.26137e-06
-0.00030804
-0.000784652
-0.00137462
-0.00203793
-0.00277041
-0.00359814
-0.00456208
-0.00570243
-0.00704912
-0.00861908
-0.0104118
-0.0124035
-0.014539
-0.0167248
-0.0188274
-0.0206793
-0.0220957
-0.0228986
-0.0229455
-0.0221579
-0.0205488
-0.0182412
-0.0154596
-0.0125242
-0.00985324
-0.00791284
-0.0071486
-0.00790496
-0.0103371
-0.0143415
-0.0196298
-0.0257521
-0.0321461
-0.0382772
-0.0437347
-0.0482783
-0.0518259
-0.0544214
-0.056196
-0.0573221
-0.0579752
-0.0583075
-0.0584359
-0.0584391
-0.0583602
-0.058222
-0.0580829
-6.57764e-05
6.58464e-06
-7.86222e-05
-0.000376936
-0.000831286
-0.00137749
-0.00198064
-0.00264255
-0.00339215
-0.00427004
-0.00531516
-0.00655753
-0.00801794
-0.00970396
-0.0116036
-0.0136795
-0.0158596
-0.0180307
-0.0200378
-0.0216941
-0.0228041
-0.0231944
-0.0227476
-0.0214359
-0.0193505
-0.0167055
-0.0138365
-0.0111805
-0.00922257
-0.0084278
-0.00915692
-0.0115836
-0.0156378
-0.0209854
-0.0271231
-0.0335031
-0.0395691
-0.0448704
-0.0491551
-0.0523861
-0.0546757
-0.0562027
-0.0571595
-0.057719
-0.0580181
-0.0581549
-0.058192
-0.0581594
-0.0580589
-0.0579273
-1.45112e-05
5.34409e-05
-5.50852e-05
-0.000379454
-0.000833614
-0.00134178
-0.0018741
-0.00244386
-0.00309249
-0.00386777
-0.00481408
-0.00597208
-0.00738025
-0.00907343
-0.0110716
-0.0133633
-0.0158867
-0.0185179
-0.0210717
-0.0233181
-0.025014
-0.0259421
-0.0259471
-0.0249742
-0.0231113
-0.0205835
-0.0177269
-0.0149756
-0.0128261
-0.0117667
-0.0121913
-0.0143129
-0.0181016
-0.0232688
-0.0293131
-0.035615
-0.0415871
-0.0467803
-0.0509035
-0.0538798
-0.0558297
-0.0569947
-0.057628
-0.0579355
-0.058063
-0.0581014
-0.0580983
-0.058064
-0.0579689
-0.0578247
0.000235127
0.000271851
0.000105417
-0.000277833
-0.000755067
-0.00123748
-0.00170464
-0.00218925
-0.0027529
-0.00346721
-0.00440634
-0.00565079
-0.00728643
-0.0093908
-0.0120064
-0.0151113
-0.0185996
-0.0222793
-0.0258908
-0.0291398
-0.0317387
-0.0334455
-0.034093
-0.0336149
-0.0320798
-0.029688
-0.0267501
-0.0236866
-0.0209948
-0.0191876
-0.0187134
-0.019866
-0.0227103
-0.0270476
-0.0324376
-0.0382803
-0.0439488
-0.048915
-0.0528692
-0.0557131
-0.0574898
-0.0584034
-0.0587324
-0.0587377
-0.0586055
-0.0584471
-0.0583143
-0.0582091
-0.0580795
-0.0579149
0.000717793
0.000685747
0.000424256
-3.97002e-05
-0.000551958
-0.00102676
-0.00145923
-0.00191026
-0.00248164
-0.0032966
-0.00449373
-0.00622231
-0.00862219
-0.011788
-0.0157312
-0.0203571
-0.0254647
-0.0307688
-0.0359359
-0.0406228
-0.0445141
-0.0473522
-0.0489586
-0.0492476
-0.0482466
-0.0460992
-0.0430675
-0.0395347
-0.0359731
-0.0329013
-0.030819
-0.0301262
-0.0310395
-0.0335308
-0.0373125
-0.0418857
-0.0466497
-0.0510361
-0.0546332
-0.0572427
-0.0588866
-0.059717
-0.0599225
-0.0597506
-0.0594216
-0.0590804
-0.0588022
-0.0586013
-0.0584255
-0.0582491
0.00147738
0.00134082
0.000959114
0.000406089
-0.000161164
-0.000669004
-0.00114341
-0.00169879
-0.00250621
-0.00377382
-0.00572884
-0.00858552
-0.0124975
-0.0175116
-0.0235422
-0.0303754
-0.0376972
-0.0451334
-0.0522897
-0.0587875
-0.0642916
-0.0685339
-0.0713287
-0.0725779
-0.0722787
-0.0705139
-0.0674779
-0.0634885
-0.0589511
-0.0543411
-0.0501642
-0.0468988
-0.0449216
-0.0444323
-0.0453981
-0.0475453
-0.050415
-0.0534745
-0.056248
-0.0584152
-0.0598459
-0.0605803
-0.0607794
-0.0606053
-0.060228
-0.0598077
-0.0594448
-0.0591777
-0.0589733
-0.0588027
0.0025515
0.00228602
0.00177523
0.00112253
0.000464113
-0.000158242
-0.00083463
-0.00176298
-0.00321503
-0.00550245
-0.00892668
-0.0137136
-0.0199538
-0.0275728
-0.0363385
-0.0458972
-0.055822
-0.0656604
-0.0749732
-0.0833654
-0.0905073
-0.0961483
-0.10012
-0.102335
-0.102788
-0.101528
-0.0986795
-0.0944726
-0.0892057
-0.083249
-0.0770327
-0.0710243
-0.0656868
-0.0614175
-0.0584785
-0.0569371
-0.056642
-0.0572571
-0.0583521
-0.0595181
-0.0604589
-0.0610279
-0.0612186
-0.0611167
-0.060826
-0.0604574
-0.0601107
-0.0598443
-0.0596501
-0.0595061
0.00394534
0.00354404
0.00290348
0.00212852
0.00131037
0.000418963
-0.00073354
-0.00245877
-0.00514318
-0.00917959
-0.0148787
-0.0223881
-0.0316512
-0.042414
-0.054271
-0.0667264
-0.0792547
-0.091351
-0.102567
-0.112535
-0.120975
-0.127695
-0.132576
-0.135562
-0.13667
-0.13596
-0.133502
-0.129439
-0.123949
-0.117258
-0.10965
-0.101473
-0.0931368
-0.0851003
-0.0778273
-0.0717237
-0.0670597
-0.0639043
-0.0621032
-0.0613238
-0.0611588
-0.0612426
-0.0613262
-0.0612995
-0.0611572
-0.0609402
-0.0607108
-0.0605228
-0.0603848
-0.0602856
0.0056018
0.00507201
0.00429675
0.00335646
0.0022525
0.000843742
-0.00118455
-0.00426957
-0.00888685
-0.0154384
-0.0241435
-0.034975
-0.0476602
-0.0617335
-0.0766147
-0.0916894
-0.106376
-0.120173
-0.132682
-0.143615
-0.152785
-0.160091
-0.165481
-0.16894
-0.170516
-0.170302
-0.168343
-0.164714
-0.159497
-0.152789
-0.144709
-0.135426
-0.125179
-0.114311
-0.103285
-0.092669
-0.0830823
-0.075086
-0.0690455
-0.0650162
-0.0627243
-0.0616738
-0.0613304
-0.0612773
-0.0612821
-0.0612667
-0.0612259
-0.0611822
-0.0611394
-0.0610959
0.00736769
0.0067238
0.00580244
0.00461388
0.00302556
0.000755774
-0.00264874
-0.00772668
-0.0149704
-0.0246849
-0.0368912
-0.0513097
-0.067415
-0.0845331
-0.101946
-0.118982
-0.135079
-0.14981
-0.162887
-0.17414
-0.183494
-0.190936
-0.19648
-0.200149
-0.202007
-0.202176
-0.200692
-0.197596
-0.192916
-0.186668
-0.178858
-0.169493
-0.158617
-0.146353
-0.132969
-0.118934
-0.104951
-0.0919054
-0.0807181
-0.0720988
-0.0663052
-0.0630463
-0.061628
-0.061262
-0.061337
-0.0615202
-0.0617027
-0.0618431
-0.0619202
-0.0619362
0.00898245
0.00824348
0.0071398
0.00556917
0.00323053
-0.00031066
-0.00562774
-0.0132955
-0.0237181
-0.0369915
-0.0528533
-0.0707313
-0.0898557
-0.109394
-0.128568
-0.146743
-0.163456
-0.178418
-0.191483
-0.202603
-0.211797
-0.219116
-0.224618
-0.228345
-0.230364
-0.230798
-0.229682
-0.227045
-0.2229
-0.217237
-0.210013
-0.201155
-0.190571
-0.178186
-0.16401
-0.148229
-0.131326
-0.114157
-0.0979197
-0.0839473
-0.0733133
-0.0664223
-0.0628454
-0.0615675
-0.0614895
-0.0618313
-0.0622304
-0.0625672
-0.0627735
-0.0628495
0.0100915
0.00926144
0.00790801
0.00577809
0.00238422
-0.00284862
-0.0105614
-0.0212693
-0.035177
-0.0520803
-0.0713898
-0.0922503
-0.113706
-0.134856
-0.15497
-0.173533
-0.190248
-0.204985
-0.217727
-0.228522
-0.237446
-0.244581
-0.249998
-0.253741
-0.255867
-0.256483
-0.255614
-0.253291
-0.249532
-0.244331
-0.237649
-0.229404
-0.219464
-0.207655
-0.193801
-0.177801
-0.159766
-0.140195
-0.120125
-0.101119
-0.0849655
-0.0730829
-0.0659023
-0.0626802
-0.0619553
-0.062316
-0.0629096
-0.0634367
-0.0637742
-0.0639133
0.0102664
0.00933092
0.00763674
0.00475026
3.35865e-06
-0.00728114
-0.0177334
-0.0317053
-0.0491091
-0.0693909
-0.0916402
-0.114779
-0.137764
-0.159737
-0.180104
-0.198535
-0.214906
-0.229228
-0.24158
-0.252058
-0.26076
-0.267766
-0.273141
-0.276919
-0.279139
-0.279889
-0.279181
-0.277047
-0.273509
-0.268576
-0.262235
-0.25443
-0.245057
-0.233944
-0.220857
-0.205531
-0.187762
-0.16759
-0.145552
-0.122912
-0.101672
-0.0841131
-0.071917
-0.0653257
-0.0630465
-0.0630829
-0.0638221
-0.0645315
-0.0650083
-0.0652223
0.00906701
0.00800053
0.00586498
0.002038
-0.00430142
-0.0138746
-0.0272131
-0.0444156
-0.065046
-0.0881991
-0.112698
-0.137339
-0.161102
-0.183266
-0.203433
-0.221462
-0.23738
-0.251292
-0.263324
-0.273586
-0.282165
-0.289127
-0.294518
-0.298361
-0.300677
-0.301538
-0.300945
-0.298926
-0.295504
-0.290695
-0.284506
-0.276916
-0.267871
-0.257254
-0.244871
-0.23044
-0.213615
-0.194099
-0.171868
-0.147538
-0.122695
-0.0998788
-0.0818744
-0.0704359
-0.0652745
-0.0642961
-0.0650183
-0.0659178
-0.066558
-0.066872
0.00612419
0.00489474
0.00222766
-0.00267677
-0.0107485
-0.0226864
-0.0388439
-0.0590071
-0.0823789
-0.107746
-0.133754
-0.159181
-0.183126
-0.205065
-0.224802
-0.242356
-0.257856
-0.271452
-0.283276
-0.293426
-0.301967
-0.308944
-0.314387
-0.318309
-0.320718
-0.321676
-0.321179
-0.319247
-0.315899
-0.311151
-0.305015
-0.297494
-0.288569
-0.27819
-0.266242
-0.252518
-0.236691
-0.218338
-0.197064
-0.172808
-0.146348
-0.119738
-0.0961878
-0.078913
-0.069365
-0.0662626
-0.0665712
-0.0676561
-0.068495
-0.068951
0.00120858
-0.000213734
-0.00347316
-0.00952115
-0.0193442
-0.0335562
-0.052275
-0.0749512
-0.100455
-0.127339
-0.154173
-0.179813
-0.203538
-0.225032
-0.244272
-0.26139
-0.276563
-0.289947
-0.301656
-0.311762
-0.320307
-0.32732
-0.332821
-0.336815
-0.339304
-0.340345
-0.339935
-0.338085
-0.334808
-0.330115
-0.324016
-0.316516
-0.307618
-0.29731
-0.285549
-0.272228
-0.257128
-0.239877
-0.219961
-0.196885
-0.1706
-0.142195
-0.114422
-0.0912742
-0.0761252
-0.0694966
-0.0686436
-0.0698113
-0.0708954
-0.0715486
-0.00572304
-0.00735804
-0.0112298
-0.0184081
-0.0298835
-0.0461361
-0.0670194
-0.0916614
-0.118657
-0.146414
-0.173516
-0.198965
-0.22224
-0.24321
-0.261981
-0.278742
-0.293678
-0.306927
-0.318572
-0.328661
-0.337216
-0.344258
-0.349801
-0.353848
-0.356398
-0.357507
-0.357174
-0.355405
-0.352207
-0.347586
-0.341545
-0.334087
-0.325213
-0.314926
-0.303224
-0.290078
-0.275388
-0.258918
-0.240231
-0.218701
-0.193737
-0.165405
-0.135365
-0.107371
-0.0861702
-0.0746581
-0.0715484
-0.0724859
-0.0738715
-0.0747697
-0.0145149
-0.0163682
-0.0208295
-0.0290523
-0.041985
-0.0599453
-0.0825218
-0.10856
-0.136451
-0.164545
-0.191508
-0.216518
-0.239243
-0.259696
-0.278059
-0.294541
-0.309306
-0.322459
-0.334058
-0.344126
-0.352678
-0.359727
-0.36529
-0.369369
-0.371964
-0.373124
-0.372858
-0.371165
-0.368049
-0.363514
-0.357558
-0.350177
-0.341367
-0.331129
-0.319471
-0.306401
-0.291905
-0.275887
-0.25808
-0.237949
-0.214719
-0.187736
-0.157396
-0.126351
-0.09965
-0.0823737
-0.0757343
-0.0758372
-0.0775445
-0.0787238
-0.024835
-0.0268964
-0.0318873
-0.0410144
-0.0551474
-0.0744333
-0.0982187
-0.125122
-0.153408
-0.181435
-0.207995
-0.23244
-0.254598
-0.27458
-0.292602
-0.30886
-0.323488
-0.33656
-0.348107
-0.358141
-0.36667
-0.373707
-0.37927
-0.383365
-0.38599
-0.387188
-0.386978
-0.385351
-0.382315
-0.377869
-0.372011
-0.364733
-0.356028
-0.345887
-0.334314
-0.321324
-0.306941
-0.291165
-0.273895
-0.254797
-0.233188
-0.20811
-0.178961
-0.14689
-0.116124
-0.0930086
-0.081693
-0.0800901
-0.0820186
-0.0835216
-0.0362218
-0.0384665
-0.0439013
-0.0537609
-0.0688112
-0.089038
-0.113585
-0.140904
-0.169199
-0.196885
-0.222894
-0.246735
-0.268355
-0.287923
-0.305656
-0.321727
-0.336234
-0.349222
-0.360705
-0.370689
-0.37918
-0.386192
-0.391742
-0.395841
-0.398485
-0.399711
-0.399546
-0.397977
-0.395011
-0.390649
-0.38489
-0.377725
-0.369145
-0.35914
-0.347702
-0.334839
-0.320579
-0.304966
-0.288014
-0.26959
-0.249241
-0.226059
-0.198908
-0.167555
-0.134644
-0.106506
-0.0898395
-0.0855294
-0.0873836
-0.0892795
-0.0481439
-0.0505346
-0.0563134
-0.0667246
-0.0824149
-0.103231
-0.128158
-0.155544
-0.18358
-0.210763
-0.236162
-0.259414
-0.280547
-0.299754
-0.317239
-0.333143
-0.347532
-0.360429
-0.371839
-0.381762
-0.390207
-0.397185
-0.402717
-0.406813
-0.40947
-0.410715
-0.410587
-0.409065
-0.40616
-0.401873
-0.396204
-0.389148
-0.380697
-0.370841
-0.35957
-0.34688
-0.33279
-0.317349
-0.300624
-0.28263
-0.263161
-0.241558
-0.216601
-0.187125
-0.153993
-0.12235
-0.100365
-0.0924262
-0.0937277
-0.0961047
-0.0600591
-0.062548
-0.0685674
-0.0793575
-0.0954375
-0.116545
-0.141556
-0.168759
-0.19637
-0.222979
-0.247771
-0.27048
-0.291181
-0.310076
-0.327343
-0.343092
-0.357364
-0.370168
-0.381499
-0.391359
-0.399754
-0.406698
-0.412209
-0.416299
-0.418964
-0.420222
-0.420123
-0.418641
-0.415786
-0.411561
-0.40597
-0.399011
-0.390681
-0.380971
-0.369874
-0.357382
-0.343504
-0.328275
-0.311773
-0.294092
-0.275222
-0.254804
-0.231836
-0.204769
-0.172961
-0.139665
-0.113126
-0.100964
-0.101153
-0.104051
-0.0714627
-0.0739986
-0.0801543
-0.0911685
-0.107427
-0.128591
-0.153469
-0.180333
-0.207439
-0.233467
-0.257694
-0.279921
-0.300251
-0.318875
-0.335948
-0.351554
-0.365714
-0.378425
-0.38968
-0.39948
-0.40783
-0.414741
-0.420232
-0.424316
-0.426987
-0.428251
-0.428176
-0.426724
-0.423908
-0.419735
-0.414207
-0.407329
-0.399102
-0.389524
-0.37859
-0.366298
-0.352648
-0.337667
-0.32142
-0.304025
-0.285593
-0.266027
-0.244675
-0.220045
-0.190547
-0.157384
-0.127624
-0.111156
-0.109711
-0.113062
-0.0819467
-0.0844341
-0.0906454
-0.101748
-0.118015
-0.13906
-0.163662
-0.190103
-0.216689
-0.242173
-0.265902
-0.287719
-0.307734
-0.326127
-0.343031
-0.358506
-0.372563
-0.38519
-0.396378
-0.406125
-0.414437
-0.421324
-0.426798
-0.430876
-0.433552
-0.434819
-0.434762
-0.433333
-0.430546
-0.426409
-0.420929
-0.414113
-0.405968
-0.396498
-0.385707
-0.373596
-0.360169
-0.345446
-0.329481
-0.312386
-0.294326
-0.27539
-0.255273
-0.232812
-0.20605
-0.174448
-0.143074
-0.122767
-0.119311
-0.122908
-0.0912021
-0.0934893
-0.0996899
-0.110779
-0.12692
-0.147723
-0.171963
-0.197952
-0.224047
-0.249054
-0.272366
-0.293845
-0.313603
-0.331803
-0.348562
-0.363925
-0.377893
-0.390451
-0.401586
-0.411295
-0.419581
-0.426452
-0.431918
-0.435992
-0.438672
-0.439945
-0.439897
-0.438483
-0.435714
-0.431599
-0.426149
-0.419373
-0.411284
-0.401894
-0.391214
-0.379255
-0.366026
-0.351548
-0.335868
-0.319088
-0.301384
-0.282952
-0.263767
-0.243087
-0.219055
-0.189943
-0.158533
-0.135289
-0.129624
-0.133183
-0.0989865
-0.100945
-0.107027
-0.118028
-0.133948
-0.154419
-0.178252
-0.2038
-0.22946
-0.254073
-0.277054
-0.29827
-0.317826
-0.335874
-0.352516
-0.36779
-0.38169
-0.394199
-0.4053
-0.414988
-0.423264
-0.430132
-0.435598
-0.439675
-0.442361
-0.443643
-0.4436
-0.442195
-0.439431
-0.435323
-0.429881
-0.423121
-0.415059
-0.405715
-0.395108
-0.383258
-0.370187
-0.355919
-0.340502
-0.324031
-0.306678
-0.288685
-0.270222
-0.250943
-0.229364
-0.203179
-0.173046
-0.147996
-0.140129
-0.143367
-0.10514
-0.106686
-0.11251
-0.123351
-0.138987
-0.159072
-0.182481
-0.207612
-0.2329
-0.257206
-0.279941
-0.300967
-0.320375
-0.338308
-0.354864
-0.370076
-0.383934
-0.396418
-0.407509
-0.417198
-0.425483
-0.432364
-0.437844
-0.441932
-0.444628
-0.44592
-0.44588
-0.44448
-0.441711
-0.437594
-0.43214
-0.425369
-0.417301
-0.407963
-0.397385
-0.385597
-0.372629
-0.358518
-0.343318
-0.327123
-0.310098
-0.292506
-0.274626
-0.25643
-0.236909
-0.213694
-0.185762
-0.16007
-0.15021
-0.152906
-0.109601
-0.11068
-0.116105
-0.126694
-0.14199
-0.161644
-0.184608
-0.209345
-0.234326
-0.25841
-0.280992
-0.301908
-0.321233
-0.339102
-0.35561
-0.37079
-0.384634
-0.397121
-0.408227
-0.417941
-0.426255
-0.433165
-0.438671
-0.442775
-0.445478
-0.446774
-0.44673
-0.445334
-0.442551
-0.438408
-0.432923
-0.426113
-0.418006
-0.408636
-0.398041
-0.38626
-0.373335
-0.359314
-0.344263
-0.328283
-0.31154
-0.294302
-0.276909
-0.259552
-0.241681
-0.221212
-0.196008
-0.170712
-0.159249
-0.161268
-0.112399
-0.112983
-0.117879
-0.128108
-0.143003
-0.162176
-0.184665
-0.20901
-0.233717
-0.257642
-0.280144
-0.301021
-0.320325
-0.338179
-0.354681
-0.369868
-0.383737
-0.396263
-0.407422
-0.417196
-0.425573
-0.432546
-0.438108
-0.44226
-0.444999
-0.446316
-0.446251
-0.444826
-0.441997
-0.437793
-0.432234
-0.425347
-0.417164
-0.407719
-0.397058
-0.385227
-0.372279
-0.358276
-0.343295
-0.327448
-0.310912
-0.293961
-0.276968
-0.260266
-0.243679
-0.225589
-0.203297
-0.179226
-0.166686
-0.167979
-0.113643
-0.113736
-0.117987
-0.127721
-0.142133
-0.160761
-0.182725
-0.206656
-0.231102
-0.254906
-0.277385
-0.298287
-0.317628
-0.335518
-0.352057
-0.36729
-0.381218
-0.393818
-0.405063
-0.41493
-0.423401
-0.430462
-0.436104
-0.440321
-0.44311
-0.444464
-0.444401
-0.442957
-0.44008
-0.435802
-0.430151
-0.423149
-0.414833
-0.405246
-0.394442
-0.382482
-0.369433
-0.355365
-0.340365
-0.324558
-0.308133
-0.291379
-0.274695
-0.258496
-0.242888
-0.226761
-0.207311
-0.185047
-0.172029
-0.172623
-0.113508
-0.113147
-0.116661
-0.125732
-0.139543
-0.157536
-0.178896
-0.202354
-0.226515
-0.250211
-0.272705
-0.293683
-0.313118
-0.331098
-0.347722
-0.363044
-0.377071
-0.389784
-0.401154
-0.411151
-0.419751
-0.426934
-0.432684
-0.43699
-0.439846
-0.441245
-0.441188
-0.439724
-0.43679
-0.432423
-0.426653
-0.419506
-0.411022
-0.401249
-0.390246
-0.378082
-0.364831
-0.350581
-0.335441
-0.319557
-0.303133
-0.286468
-0.269983
-0.254152
-0.239277
-0.224701
-0.207858
-0.187749
-0.174854
-0.174835
-0.112218
-0.111474
-0.114192
-0.122412
-0.135458
-0.152687
-0.173324
-0.196205
-0.220007
-0.243563
-0.266081
-0.287172
-0.30675
-0.324875
-0.341638
-0.357098
-0.371273
-0.384145
-0.395685
-0.405856
-0.414626
-0.421969
-0.427862
-0.432287
-0.435232
-0.436687
-0.436645
-0.435159
-0.432163
-0.42769
-0.421776
-0.414449
-0.405751
-0.395735
-0.384467
-0.37202
-0.358482
-0.34395
-0.328549
-0.312443
-0.295867
-0.279154
-0.262747
-0.247149
-0.232798
-0.2194
-0.204838
-0.18702
-0.174792
-0.174289
-0.110034
-0.109003
-0.110913
-0.118091
-0.13016
-0.14645
-0.166198
-0.188344
-0.211656
-0.234987
-0.257493
-0.278708
-0.29847
-0.316794
-0.333755
-0.349413
-0.36379
-0.376875
-0.388635
-0.39903
-0.408019
-0.415566
-0.421641
-0.426219
-0.42928
-0.430812
-0.430802
-0.429294
-0.426233
-0.421643
-0.415561
-0.40802
-0.399063
-0.388747
-0.377141
-0.364328
-0.350401
-0.335472
-0.319682
-0.303219
-0.286343
-0.269419
-0.252933
-0.237422
-0.223409
-0.210857
-0.198208
-0.182652
-0.171517
-0.170681
-0.107227
-0.106019
-0.107158
-0.113134
-0.123984
-0.139105
-0.157747
-0.178943
-0.201569
-0.224524
-0.246932
-0.268244
-0.288211
-0.306787
-0.324011
-0.339935
-0.354582
-0.367944
-0.379986
-0.390662
-0.399925
-0.407729
-0.414033
-0.418804
-0.422016
-0.423651
-0.423692
-0.422169
-0.419046
-0.414329
-0.40806
-0.400273
-0.391013
-0.380338
-0.368322
-0.355053
-0.340631
-0.325182
-0.308864
-0.29189
-0.274553
-0.257259
-0.240534
-0.224956
-0.211099
-0.19909
-0.187971
-0.174517
-0.164739
-0.163725
-0.10406
-0.102785
-0.103239
-0.107913
-0.117298
-0.130975
-0.14824
-0.168212
-0.189888
-0.212246
-0.234403
-0.255736
-0.275902
-0.294772
-0.31233
-0.328601
-0.343602
-0.357319
-0.369718
-0.380747
-0.390349
-0.398469
-0.405057
-0.410071
-0.413475
-0.415246
-0.415362
-0.413839
-0.410659
-0.405812
-0.399338
-0.391276
-0.38167
-0.370579
-0.358079
-0.344261
-0.329235
-0.313137
-0.296146
-0.278501
-0.260535
-0.242696
-0.225565
-0.209765
-0.195916
-0.18416
-0.174177
-0.162567
-0.154201
-0.153138
-0.100761
-0.0995133
-0.0994121
-0.102775
-0.110487
-0.122418
-0.137978
-0.156391
-0.176787
-0.19825
-0.219928
-0.241147
-0.261465
-0.280652
-0.298614
-0.315328
-0.330783
-0.344957
-0.357807
-0.369276
-0.379297
-0.387806
-0.394744
-0.400057
-0.403703
-0.405649
-0.405872
-0.404372
-0.401145
-0.396168
-0.389477
-0.381114
-0.371121
-0.359558
-0.3465
-0.332041
-0.316299
-0.299423
-0.281611
-0.263135
-0.244368
-0.225811
-0.2081
-0.191913
-0.177923
-0.166198
-0.156942
-0.146835
-0.139707
-0.138654
-0.0975132
-0.096359
-0.0958605
-0.0980026
-0.103917
-0.113807
-0.127294
-0.143754
-0.162471
-0.182668
-0.203562
-0.224459
-0.244828
-0.264324
-0.282752
-0.300011
-0.316043
-0.330798
-0.344219
-0.356236
-0.366776
-0.375763
-0.383128
-0.38881
-0.392757
-0.394928
-0.395295
-0.393847
-0.390591
-0.385488
-0.378574
-0.369888
-0.359473
-0.347383
-0.333696
-0.318507
-0.30194
-0.284158
-0.265383
-0.245919
-0.226188
-0.206747
-0.188291
-0.171551
-0.157241
-0.145403
-0.136451
-0.127431
-0.121145
-0.120034
-0.0944436
-0.0934222
-0.0926909
-0.0937922
-0.0979005
-0.10551
-0.116539
-0.130599
-0.147176
-0.165668
-0.185398
-0.20569
-0.225944
-0.245698
-0.264631
-0.282538
-0.299283
-0.314768
-0.328906
-0.341609
-0.35279
-0.362365
-0.370253
-0.376386
-0.380704
-0.38316
-0.383719
-0.382359
-0.379096
-0.373881
-0.366741
-0.357717
-0.346847
-0.334185
-0.319803
-0.303801
-0.286309
-0.267505
-0.247636
-0.227045
-0.206203
-0.185727
-0.166373
-0.148922
-0.134112
-0.121998
-0.112948
-0.104524
-0.0984934
-0.0970316
-0.0916288
-0.0907589
-0.0899437
-0.0902421
-0.0926581
-0.0978462
-0.106054
-0.117236
-0.131162
-0.147451
-0.165577
-0.184913
-0.20482
-0.224725
-0.244166
-0.262807
-0.280405
-0.296786
-0.311812
-0.325364
-0.337338
-0.347633
-0.356162
-0.362846
-0.36762
-0.370431
-0.371238
-0.370015
-0.366772
-0.361465
-0.354108
-0.344737
-0.33339
-0.320116
-0.304988
-0.288106
-0.269607
-0.249687
-0.228619
-0.206787
-0.184714
-0.163078
-0.142693
-0.124379
-0.108892
-0.0962529
-0.0867729
-0.0783247
-0.0717947
-0.0692979
-0.0891011
-0.0883915
-0.0876121
-0.0873578
-0.0882882
-0.0910319
-0.0961292
-0.103964
-0.114701
-0.128257
-0.144295
-0.162278
-0.181549
-0.201438
-0.221343
-0.240772
-0.259349
-0.276793
-0.292892
-0.30748
-0.320419
-0.331592
-0.340898
-0.348253
-0.353583
-0.356833
-0.357958
-0.356928
-0.353745
-0.348375
-0.340817
-0.331103
-0.319271
-0.305366
-0.28946
-0.271656
-0.2521
-0.231005
-0.208672
-0.185527
-0.162144
-0.139256
-0.117725
-0.0983983
-0.0820276
-0.068558
-0.0583356
-0.0490835
-0.0412423
-0.0364263
-0.0868524
-0.0863164
-0.0856612
-0.0850705
-0.0847531
-0.0851319
-0.0869383
-0.0910242
-0.0980603
-0.108354
-0.121818
-0.138031
-0.156345
-0.176008
-0.196279
-0.216503
-0.236149
-0.254804
-0.272156
-0.287969
-0.302059
-0.314283
-0.324522
-0.332682
-0.338685
-0.342472
-0.343997
-0.343227
-0.340155
-0.334765
-0.327038
-0.317004
-0.304699
-0.290171
-0.27349
-0.254762
-0.234144
-0.211868
-0.188263
-0.163789
-0.139066
-0.114868
-0.0920859
-0.0715746
-0.0540618
-0.0394156
-0.0280834
-0.0171105
-0.00746468
0.00165087
-0.084827
-0.0844946
-0.084032
-0.0832509
-0.0818774
-0.0800184
-0.0784782
-0.0785479
-0.0814713
-0.0880427
-0.0984903
-0.112546
-0.129586
-0.148791
-0.169289
-0.190264
-0.211017
-0.230986
-0.249738
-0.266947
-0.282367
-0.295813
-0.307145
-0.316253
-0.323056
-0.327488
-0.329505
-0.329075
-0.326184
-0.320831
-0.312987
-0.30268
-0.289948
-0.274842
-0.257434
-0.237836
-0.216218
-0.192825
-0.168012
-0.142265
-0.116227
-0.0906883
-0.0665354
-0.0445982
-0.0255609
-0.00924909
0.00377151
0.0175187
0.0287096
0.0447586
-0.0829068
-0.0828315
-0.0826176
-0.0816981
-0.0793488
-0.0753588
-0.0705269
-0.0665041
-0.0651
-0.0676499
-0.074759
-0.0863515
-0.10185
-0.120381
-0.14095
-0.162587
-0.184427
-0.205751
-0.225992
-0.244719
-0.261609
-0.276425
-0.288993
-0.299186
-0.30691
-0.312101
-0.314711
-0.314711
-0.312084
-0.306841
-0.298959
-0.28846
-0.275387
-0.259797
-0.241769
-0.221424
-0.198943
-0.174584
-0.148713
-0.121822
-0.0945489
-0.067654
-0.0419698
-0.0182488
0.00291183
0.021745
0.0376508
0.0556351
0.0682464
0.0950012
-0.0809031
-0.0811485
-0.0812138
-0.0800991
-0.0767157
-0.0706416
-0.062664
-0.0546987
-0.0490363
-0.047531
-0.051191
-0.060169
-0.0739596
-0.0916499
-0.112143
-0.134325
-0.157176
-0.179826
-0.20157
-0.221866
-0.240302
-0.256582
-0.270488
-0.28187
-0.290621
-0.29667
-0.299971
-0.300496
-0.298231
-0.29319
-0.285372
-0.274795
-0.261512
-0.245587
-0.227111
-0.206217
-0.183092
-0.157999
-0.131298
-0.103457
-0.0750617
-0.0467876
-0.0193486
0.0066489
0.0307725
0.0534436
0.0742649
0.0990569
0.116308
0.159715
-0.0786114
-0.0792041
-0.0795422
-0.0780674
-0.0734509
-0.0652683
-0.0543796
-0.042864
-0.0333463
-0.0280969
-0.0284933
-0.0349284
-0.046995
-0.0637684
-0.0840713
-0.106672
-0.130415
-0.15429
-0.177467
-0.199291
-0.219265
-0.237023
-0.252304
-0.264925
-0.274764
-0.281742
-0.285811
-0.286949
-0.285146
-0.280416
-0.27278
-0.262269
-0.248945
-0.232886
-0.214195
-0.193011
-0.169524
-0.143988
-0.116729
-0.0881543
-0.0587427
-0.0290193
0.000498699
0.0294342
0.0576092
0.085768
0.113915
0.149146
0.179143
0.244227
-0.0761447
-0.0769684
-0.0774215
-0.0753312
-0.0692656
-0.058881
-0.0453324
-0.0308627
-0.0182058
-0.00987305
-0.00752115
-0.0117512
-0.0222654
-0.0381591
-0.0582124
-0.0811103
-0.10559
-0.130529
-0.154986
-0.178208
-0.199615
-0.218776
-0.235383
-0.24922
-0.260146
-0.268074
-0.272954
-0.274767
-0.273513
-0.269211
-0.261891
-0.251596
-0.238408
-0.222429
-0.20377
-0.182572
-0.159011
-0.133313
-0.105745
-0.0766138
-0.0462392
-0.0149183
0.0171364
0.0499286
0.0837087
0.11967
0.158133
0.20787
0.255588
0.334534
-0.0747845
-0.0754469
-0.0755143
-0.0722372
-0.0643444
-0.0517497
-0.0358145
-0.0190369
-0.0041576
0.00636847
0.0106958
0.00808365
-0.00124478
-0.0164215
-0.0362272
-0.059309
-0.0843383
-0.110113
-0.13561
-0.159997
-0.182625
-0.203007
-0.22079
-0.235728
-0.247662
-0.256491
-0.262166
-0.264668
-0.264008
-0.260216
-0.253343
-0.243429
-0.230542
-0.214804
-0.196354
-0.175334
-0.151897
-0.126221
-0.0984955
-0.0688976
-0.0375477
-0.00443474
0.030688
0.0684996
0.110179
0.158069
0.213257
0.284527
0.345177
0.42047
-0.0790052
-0.0782547
-0.0765695
-0.0709065
-0.0603596
-0.0451995
-0.0270419
-0.00847413
0.00776459
0.0195038
0.0250232
0.0233716
0.014759
3.17857e-05
-0.0196138
-0.0428218
-0.0682355
-0.094609
-0.120867
-0.146124
-0.169681
-0.191008
-0.209717
-0.225538
-0.238294
-0.247875
-0.254228
-0.257336
-0.257215
-0.253902
-0.247456
-0.237956
-0.225473
-0.210075
-0.191891
-0.171084
-0.147801
-0.122172
-0.0943083
-0.06425
-0.0318935
0.00314411
0.041728
0.0855887
0.137664
0.203206
0.287049
0.399248
0.491926
0.599867
-0.102402
-0.0945039
-0.0859746
-0.0751449
-0.0608028
-0.0425767
-0.0221188
-0.00198465
0.0154183
0.0279136
0.033866
0.0326267
0.0244086
0.010011
-0.00941397
-0.0325433
-0.0580347
-0.0846373
-0.111256
-0.136977
-0.161071
-0.182975
-0.202277
-0.218684
-0.232003
-0.242115
-0.248959
-0.252518
-0.252808
-0.249867
-0.243757
-0.234555
-0.222345
-0.207229
-0.189317
-0.168722
-0.145573
-0.119977
-0.091975
-0.0614842
-0.0281831
0.00869075
0.0506711
0.1007
0.163937
0.249918
0.371372
0.551863
0.764412
1.10509
-0.189158
-0.111325
-0.0796635
-0.0704035
-0.0571595
-0.0379118
-0.0164351
0.00428436
0.0217784
0.03392
0.0393503
0.0376174
0.0290123
0.014362
-0.00518938
-0.028355
-0.0538373
-0.0804235
-0.107044
-0.1328
-0.156965
-0.178976
-0.198413
-0.214978
-0.22847
-0.238763
-0.245794
-0.24954
-0.250015
-0.247258
-0.241329
-0.232302
-0.220268
-0.205322
-0.18757
-0.167122
-0.14409
-0.118552
-0.0904936
-0.0597355
-0.0257907
0.0123849
0.056805
0.111239
0.182279
0.282317
0.431294
0.67687
1.07655
1.82631
)
;

boundaryField
{
    movingWall
    {
        type            zeroGradient;
    }
    fixedWalls
    {
        type            zeroGradient;
    }
    frontAndBack
    {
        type            empty;
    }
}


// ************************************************************************* //
