/*--------------------------------*- C++ -*----------------------------------*\
  =========                 |
  \\      /  F ield         | OpenFOAM: The Open Source CFD Toolbox
   \\    /   O peration     | Website:  https://openfoam.org
    \\  /    A nd           | Version:  7
     \\/     M anipulation  |
\*---------------------------------------------------------------------------*/
FoamFile
{
    version     2.0;
    format      ascii;
    class       surfaceScalarField;
    location    "250";
    object      phi;
}
// * * * * * * * * * * * * * * * * * * * * * * * * * * * * * * * * * * * * * //

dimensions      [0 3 -1 0 0 0 0];

internalField   nonuniform List<scalar> 
4900
(
1.69678e-06
-1.73039e-06
6.24627e-06
-4.54808e-06
1.17495e-05
-5.50958e-06
1.65357e-05
-4.79401e-06
1.97766e-05
-3.24773e-06
2.14061e-05
-1.63501e-06
2.17737e-05
-3.72332e-07
2.1255e-05
5.1469e-07
1.9989e-05
1.26213e-06
1.78065e-05
2.17887e-06
1.43095e-05
3.49335e-06
9.00733e-06
5.29873e-06
1.40479e-06
7.59936e-06
-8.95461e-06
1.03565e-05
-2.24244e-05
1.34671e-05
-3.91704e-05
1.67436e-05
-5.90996e-05
1.99271e-05
-8.17782e-05
2.26766e-05
-0.000106368
2.45876e-05
-0.000131609
2.52399e-05
-0.000155871
2.42605e-05
-0.000177261
2.13882e-05
-0.000193787
1.65246e-05
-0.00020356
9.77224e-06
-0.000205039
1.4778e-06
-0.000197258
-7.78237e-06
-0.000179945
-1.73141e-05
-0.000153597
-2.63491e-05
-0.000119484
-3.41139e-05
-7.96122e-05
-3.98726e-05
-3.6619e-05
-4.29942e-05
6.38736e-06
-4.30074e-05
4.613e-05
-3.97437e-05
7.97164e-05
-3.35875e-05
0.000104933
-2.52176e-05
0.000120466
-1.55339e-05
0.000126148
-5.68293e-06
0.000123012
3.13514e-06
0.000113031
9.97984e-06
9.85932e-05
1.4437e-05
8.20541e-05
1.65383e-05
6.5374e-05
1.66793e-05
4.99241e-05
1.5449e-05
3.64619e-05
1.34614e-05
2.52322e-05
1.12288e-05
1.61387e-05
9.09271e-06
8.96073e-06
7.17709e-06
3.63198e-06
5.32786e-06
5.17842e-07
3.11329e-06
5.17665e-07
4.48989e-06
-6.21489e-06
1.38832e-05
-1.39501e-05
2.43471e-05
-1.59904e-05
3.2917e-05
-1.33816e-05
3.79844e-05
-8.33072e-06
3.91625e-05
-2.82642e-06
3.67332e-05
2.0455e-06
3.0997e-05
6.24033e-06
2.18354e-05
1.04138e-05
8.60818e-06
1.53965e-05
-9.69398e-06
2.17865e-05
-3.41806e-05
2.97771e-05
-6.5756e-05
3.91673e-05
-0.000104859
4.94533e-05
-0.000151254
5.98562e-05
-0.000203867
6.93513e-05
-0.000260732
7.67878e-05
-0.00031912
8.10605e-05
-0.000375815
8.128e-05
-0.000427471
7.68927e-05
-0.000470942
6.77283e-05
-0.000503544
5.39878e-05
-0.00052322
3.61985e-05
-0.000528624
1.51738e-05
-0.000519203
-7.94564e-06
-0.000495047
-3.19402e-05
-0.000456784
-5.55785e-05
-0.0004056
-7.75351e-05
-0.000343302
-9.64136e-05
-0.000272344
-0.000110833
-0.000195799
-0.000119541
-0.000117238
-0.00012157
-4.05395e-05
-0.000116444
3.02197e-05
-0.000104349
9.13028e-05
-8.63031e-05
0.000139863
-6.40969e-05
0.000173944
-3.97655e-05
0.000192715
-1.56379e-05
0.000196714
5.97836e-06
0.00018799
2.31586e-05
0.000169666
3.48611e-05
0.000145328
4.10149e-05
0.000118401
4.23738e-05
9.16769e-05
4.0184e-05
6.70516e-05
3.58521e-05
4.55405e-05
3.06017e-05
2.75549e-05
2.51604e-05
1.33938e-05
1.94868e-05
3.77725e-06
1.27279e-05
4.29469e-06
6.0012e-06
-1.22165e-05
1.73552e-05
-2.53089e-05
2.87949e-05
-2.74418e-05
3.67612e-05
-2.13619e-05
3.93956e-05
-1.09788e-05
3.61107e-05
4.45963e-07
2.6838e-05
1.13067e-05
1.13575e-05
2.17103e-05
-1.11133e-05
3.28749e-05
-4.18667e-05
4.61413e-05
-8.22683e-05
6.21805e-05
-0.000133237
8.07392e-05
-0.00019482
0.000100745
-0.000265883
0.000120512
-0.000344043
0.000138012
-0.000425906
0.000151211
-0.000507531
0.000158409
-0.00058495
0.000158477
-0.000654619
0.000150946
-0.000713686
0.000135958
-0.000760086
0.000114126
-0.000792483
8.63836e-05
-0.000810137
5.385e-05
-0.000812713
1.77478e-05
-0.000800092
-2.0568e-05
-0.000772289
-5.97445e-05
-0.000729604
-9.82656e-05
-0.00067275
-0.000134391
-0.000602939
-0.000166225
-0.000521989
-0.000191785
-0.000432391
-0.00020914
-0.000337318
-0.000216644
-0.000240539
-0.000213225
-0.000146191
-0.0001987
-5.85041e-05
-0.000173992
1.85209e-05
-0.000141124
8.18597e-05
-0.000103106
0.000129696
-6.34765e-05
0.000161048
-2.53758e-05
0.000176027
8.17723e-06
0.000176127
3.476e-05
0.000164116
5.30234e-05
0.000143531
6.29576e-05
0.000118053
6.566e-05
9.0958e-05
6.29448e-05
6.47442e-05
5.68135e-05
4.10959e-05
4.88068e-05
2.12367e-05
3.93437e-05
6.62038e-06
2.73425e-05
1.09148e-05
6.51243e-06
-1.87268e-05
1.7574e-05
-3.63751e-05
2.68615e-05
-3.67388e-05
3.05627e-05
-2.50749e-05
2.68756e-05
-7.30414e-06
1.51028e-05
1.22068e-05
-5.304e-06
3.17028e-05
-3.53782e-05
5.17751e-05
-7.66561e-05
7.41449e-05
-0.000130613
0.000100091
-0.000197958
0.00012952
-0.000278069
0.000160846
-0.000368769
0.00019144
-0.000466514
0.000218254
-0.000566953
0.000238448
-0.000665617
0.000249873
-0.000758533
0.000251323
-0.000842584
0.000242526
-0.000915595
0.000223956
-0.000976205
0.000196565
-0.00102363
0.000161548
-0.00105741
0.000120165
-0.00107724
7.36743e-05
-0.00108281
2.33144e-05
-0.00107374
-2.96377e-05
-0.00104972
-8.37611e-05
-0.0010106
-0.000137393
-0.000956407
-0.000188581
-0.00088754
-0.000235094
-0.000804887
-0.000274439
-0.000710037
-0.000303992
-0.000605436
-0.000321246
-0.000494465
-0.000324196
-0.000381372
-0.000311794
-0.000270983
-0.000284382
-0.000168171
-0.000243937
-7.72844e-05
-0.000193995
-1.65256e-06
-0.00013911
5.70963e-05
-8.41268e-05
9.86479e-05
-3.33766e-05
0.000123261
1.01448e-05
0.000132194
4.40882e-05
0.000127925
6.72249e-05
0.000113734
7.98498e-05
9.31972e-05
8.34795e-05
6.96849e-05
8.03239e-05
4.60301e-05
7.24597e-05
2.46034e-05
6.07686e-05
7.9203e-06
4.40238e-05
1.88349e-05
6.18893e-06
-2.49173e-05
1.48078e-05
-4.4999e-05
1.89958e-05
-4.09349e-05
1.51004e-05
-2.11898e-05
1.57792e-06
6.20726e-06
-2.24675e-05
3.6242e-05
-5.82303e-05
6.74569e-05
-0.000107447
0.000100985
-0.000171732
0.000138423
-0.000251606
0.000179961
-0.000345825
0.000223734
-0.000451301
0.000266318
-0.000563592
0.000303728
-0.000677718
0.000332377
-0.000788995
0.000349723
-0.000893627
0.000354502
-0.000988927
0.000346621
-0.00107323
0.000326832
-0.00114565
0.00029637
-0.00120574
0.000256658
-0.00125332
0.000209119
-0.00128825
0.0001551
-0.00131044
9.58604e-05
-0.00131973
3.26033e-05
-0.00131586
-3.35101e-05
-0.00129846
-0.000101158
-0.00126706
-0.000168803
-0.00122105
-0.000234588
-0.00115989
-0.000296256
-0.00108325
-0.000351083
-0.000991313
-0.000395926
-0.000885136
-0.000427425
-0.000766948
-0.000442385
-0.00064039
-0.000438354
-0.000510481
-0.000414291
-0.000383236
-0.000371184
-0.000264874
-0.000312358
-0.00016075
-0.000243236
-7.44568e-05
-0.000170422
-7.50048e-06
-0.000100335
4.06247e-05
-3.79825e-05
7.11772e-05
1.35336e-05
8.57541e-05
5.2646e-05
8.68637e-05
7.87384e-05
7.77006e-05
9.26407e-05
6.17709e-05
9.62518e-05
4.25392e-05
9.16898e-05
2.33106e-05
7.99951e-05
7.5725e-06
5.97604e-05
2.64072e-05
4.85261e-06
-2.97708e-05
8.70677e-06
-4.88592e-05
4.93343e-06
-3.71694e-05
-9.50366e-06
-6.76202e-06
-3.59525e-05
3.2647e-05
-7.55878e-05
7.58693e-05
-0.000130137
0.000122
-0.000201331
0.000172173
-0.000289674
0.000226762
-0.000393565
0.000283848
-0.000509277
0.000339443
-0.000631684
0.000388722
-0.000755306
0.000427347
-0.000875242
0.000452311
-0.000987728
0.000462207
-0.00109026
0.000457037
-0.00118144
0.00043779
-0.0012606
0.000405997
-0.00132763
0.000363396
-0.00138269
0.000311718
-0.00142615
0.000252573
-0.00145844
0.000187395
-0.00148002
0.000117435
-0.00149121
4.37901e-05
-0.00149212
-3.26032e-05
-0.00148251
-0.000110763
-0.00146177
-0.000189542
-0.00142885
-0.000267511
-0.00138234
-0.00034277
-0.00132064
-0.000412782
-0.00124227
-0.000474299
-0.00114627
-0.000523422
-0.00103278
-0.000555874
-0.000903591
-0.000567546
-0.000762579
-0.000555304
-0.000615807
-0.000517956
-0.000471027
-0.000457139
-0.000336507
-0.000377756
-0.000219378
-0.000287552
-0.000124043
-0.000195671
-5.15518e-05
-0.000110475
-3.19551e-07
-3.77007e-05
3.22631e-05
2.00613e-05
4.87568e-05
6.22427e-05
5.21116e-05
8.9284e-05
4.57328e-05
0.000102629
3.33192e-05
0.000104102
1.87328e-05
9.458e-05
6.06847e-06
7.2423e-05
3.24755e-05
2.19083e-06
-3.19645e-05
-1.1848e-06
-4.54902e-05
-1.55128e-05
-2.2849e-05
-4.29683e-05
2.06858e-05
-8.47393e-05
7.4411e-05
-0.000142265
0.000133389
-0.000217227
0.000196956
-0.000310243
0.000265185
-0.000419691
0.000336206
-0.000541536
0.00040569
-0.000670165
0.000468069
-0.000799618
0.000518173
-0.000924642
0.000552369
-0.00104127
0.000568936
-0.00114692
0.000567852
-0.00124018
0.000550303
-0.00132056
0.000518169
-0.0013882
0.00047363
-0.0014437
0.000418897
-0.00148802
0.000356037
-0.0015223
0.000286854
-0.00154774
0.000212825
-0.00156539
0.000135089
-0.0015761
5.44964e-05
-0.00158035
-2.83504e-05
-0.00157817
-0.00011295
-0.00156901
-0.000198696
-0.00155172
-0.000284806
-0.00152445
-0.000370043
-0.00148474
-0.000452487
-0.00142972
-0.000529328
-0.0013564
-0.000596742
-0.00126234
-0.000649931
-0.00114642
-0.000683464
-0.00100974
-0.000691984
-0.000856372
-0.000671328
-0.000693624
-0.000619888
-0.000531486
-0.000539895
-0.000380974
-0.000438065
-0.000251639
-0.000325007
-0.00014908
-0.000213036
-7.3882e-05
-0.0001129
-2.28142e-05
-3.10083e-05
8.4463e-06
3.09803e-05
2.37741e-05
7.39542e-05
2.69518e-05
9.94494e-05
2.1933e-05
0.000109119
1.28921e-05
0.000103619
4.16394e-06
8.11499e-05
3.66392e-05
-2.04184e-06
-2.99248e-05
-1.50142e-05
-3.2525e-05
-4.19579e-05
4.08777e-06
-8.41445e-05
6.28662e-05
-0.000142585
0.000132847
-0.000218661
0.000209461
-0.000313098
0.000291389
-0.000424523
0.000376607
-0.000548949
0.000460629
-0.000680503
0.000537242
-0.000812774
0.000600337
-0.00094002
0.000645418
-0.00105786
0.000670205
-0.00116341
0.000674483
-0.00125512
0.000659569
-0.00133255
0.000627729
-0.00139608
0.000581695
-0.00144676
0.000524312
-0.00148613
0.000458264
-0.00151597
0.00038588
-0.00153814
0.000309019
-0.00155435
0.000229031
-0.00156605
0.000146793
-0.00157437
6.28104e-05
-0.00158003
-2.26933e-05
-0.0015833
-0.000109679
-0.00158393
-0.000198064
-0.00158102
-0.000287717
-0.0015729
-0.000378164
-0.00155703
-0.000468364
-0.00152993
-0.000556423
-0.00148738
-0.000639295
-0.00142476
-0.000712549
-0.00133788
-0.00077035
-0.00122404
-0.000805821
-0.00108341
-0.000811963
-0.00092015
-0.000783145
-0.000743014
-0.000717031
-0.00056466
-0.000616419
-0.000399442
-0.000490226
-0.00025982
-0.000352658
-0.000152708
-0.000220014
-7.7903e-05
-0.000105814
-3.00355e-05
-1.6889e-05
-2.68296e-06
4.65999e-05
9.54031e-06
8.72243e-05
1.14546e-05
0.000107203
7.65026e-06
0.000107422
2.55809e-06
8.62404e-05
3.91972e-05
-7.90376e-06
-2.20243e-05
-3.23203e-05
-8.11495e-06
-7.3197e-05
4.49587e-05
-0.000130767
0.000120432
-0.000205838
0.000207913
-0.00029909
0.00030271
-0.000409545
0.000401841
-0.000533599
0.000500658
-0.000665405
0.000592432
-0.000798203
0.000670038
-0.000925704
0.000727837
-0.00104296
0.00076267
-0.00114663
0.000773877
-0.00123493
0.000762778
-0.00130737
0.000732009
-0.00136457
0.000684933
-0.00140802
0.00062514
-0.00143977
0.000556061
-0.00146217
0.000480664
-0.00147757
0.000401278
-0.0014881
0.00031955
-0.00149557
0.000236495
-0.0015014
0.000152621
-0.00150665
6.80654e-05
-0.00151207
-1.72767e-05
-0.00151807
-0.000103684
-0.00152471
-0.000191428
-0.00153161
-0.000280817
-0.00153778
-0.000371994
-0.00154137
-0.000464775
-0.00153942
-0.000558376
-0.00152767
-0.000651039
-0.00150065
-0.000739576
-0.00145203
-0.000818968
-0.00137565
-0.000882199
-0.00126699
-0.000920626
-0.00112502
-0.000925119
-0.000953951
-0.000888096
-0.000764171
-0.0008062
-0.000571453
-0.000682945
-0.000393972
-0.000530139
-0.000247321
-0.000366666
-0.000139395
-0.000213741
-6.84735e-05
-8.78119e-05
-2.64589e-05
4.58364e-06
-4.69926e-06
6.5463e-05
3.63101e-06
9.8871e-05
4.16436e-06
0.000106886
1.68171e-06
8.87219e-05
4.08787e-05
-1.51104e-05
-6.91609e-06
-5.20999e-05
2.88685e-05
-0.000107163
0.000100017
-0.000179598
0.000192863
-0.000269716
0.000298029
-0.000376901
0.000409892
-0.000498191
0.000523129
-0.000628112
0.000630577
-0.000759775
0.000724094
-0.000886382
0.000796643
-0.00100233
0.000843787
-0.00110373
0.000864063
-0.0011884
0.000858552
-0.0012558
0.000830168
-0.0013067
0.000782914
-0.00134299
0.000721219
-0.00136723
0.000649376
-0.00138226
0.000571094
-0.00139084
0.000489243
-0.00139535
0.000405793
-0.00139771
0.000321908
-0.00139935
0.000238125
-0.00140128
0.00015455
-0.00140423
7.10167e-05
-0.00140872
-1.27873e-05
-0.00141514
-9.72626e-05
-0.00142377
-0.000182799
-0.00143474
-0.000269846
-0.00144789
-0.000358846
-0.00146249
-0.000450177
-0.00147688
-0.000543984
-0.00148806
-0.000639863
-0.00149128
-0.000736357
-0.00147995
-0.000830294
-0.00144605
-0.000916104
-0.00138125
-0.000985427
-0.00127893
-0.00102744
-0.0011367
-0.00103032
-0.000958908
-0.000983997
-0.000757903
-0.00088395
-0.000553129
-0.000734914
-0.000366985
-0.00055281
-0.000217997
-0.00036273
-0.000114062
-0.000191748
-5.07219e-05
-5.87576e-05
-1.66964e-05
3.1436e-05
-1.50164e-06
8.36745e-05
2.64929e-06
0.000102734
1.62239e-06
8.97471e-05
4.25009e-05
-2.31541e-05
1.62353e-05
-7.28214e-05
7.85314e-05
-0.000141241
0.000168433
-0.000226859
0.000278478
-0.000329091
0.000400258
-0.000445723
0.000526522
-0.000572008
0.000649412
-0.000701267
0.000759835
-0.000826357
0.000849182
-0.00094103
0.000911314
-0.00104071
0.000943469
-0.00112276
0.000946107
-0.00118639
0.000922178
-0.00123247
0.000876255
-0.00126321
0.000813653
-0.00128164
0.000739642
-0.00129106
0.000658804
-0.00129462
0.000574648
-0.00129489
0.000489516
-0.00129381
0.000404711
-0.00129267
0.000320763
-0.00129225
0.000237707
-0.00129302
0.000155313
-0.00129523
7.32319e-05
-0.00129911
-8.91e-06
-0.0013049
-9.14784e-05
-0.0013129
-0.000174792
-0.00132354
-0.000259205
-0.00133724
-0.000345149
-0.00135426
-0.000433156
-0.00137441
-0.000523839
-0.00139653
-0.000617742
-0.0014179
-0.000714989
-0.00143357
-0.000814621
-0.00143603
-0.000913648
-0.00141549
-0.00100597
-0.0013613
-0.00108163
-0.00126454
-0.00112708
-0.00112143
-0.00112711
-0.000936717
-0.00106866
-0.000725423
-0.000946209
-0.000511393
-0.000766841
-0.000321505
-0.000552619
-0.000176392
-0.000336861
-8.21288e-05
-0.000153022
-2.99786e-05
-2.07156e-05
-5.60974e-06
5.93044e-05
2.39137e-06
9.47312e-05
2.15409e-06
8.99834e-05
4.46548e-05
-3.1283e-05
4.7517e-05
-9.26667e-05
0.000139911
-0.000172693
0.000248457
-0.000268834
0.000374617
-0.000379357
0.00051078
-0.000500499
0.000647662
-0.000626213
0.000775126
-0.000749322
0.000882943
-0.000863033
0.000962891
-0.000962043
0.00101032
-0.00104306
0.00102449
-0.00110492
0.00100796
-0.00114838
0.000965645
-0.00117584
0.000903713
-0.0011907
0.000828511
-0.00119672
0.000745662
-0.0011974
0.000659479
-0.00119554
0.000572784
-0.00119308
0.000487063
-0.0011912
0.000402827
-0.00119043
0.000319995
-0.00119094
0.000238213
-0.00119269
0.000157059
-0.00119559
7.61403e-05
-0.00119963
-4.87112e-06
-0.00120488
-8.62308e-05
-0.00121157
-0.000168109
-0.00122009
-0.000250684
-0.00123104
-0.000334201
-0.00124515
-0.000419046
-0.00126317
-0.000505819
-0.00128554
-0.000595372
-0.00131181
-0.000688712
-0.00133981
-0.000786623
-0.00136463
-0.000888831
-0.00137793
-0.000992664
-0.00136814
-0.00109142
-0.00132207
-0.00117315
-0.00122838
-0.0012208
-0.00108211
-0.00121493
-0.000889151
-0.00113917
-0.000668291
-0.000987702
-0.000448736
-0.000772173
-0.000261735
-0.000523863
-0.000128169
-0.000286588
-4.95189e-05
-9.93668e-05
-1.15217e-05
2.13058e-05
2.03273e-06
8.11758e-05
2.84255e-06
8.91719e-05
4.74972e-05
-3.86235e-05
8.61387e-05
-0.000109914
0.000211199
-0.000199049
0.00033759
-0.000302417
0.000477984
-0.000417086
0.000625448
-0.00053804
0.000768614
-0.000658516
0.000895601
-0.000771433
0.000995859
-0.000870784
0.00106224
-0.000952496
0.00109203
-0.00101476
0.00108675
-0.00105801
0.00105121
-0.00108459
0.000992218
-0.00109812
0.000917239
-0.00110273
0.000833122
-0.00110229
0.000745223
-0.00109985
0.000657045
-0.00109745
0.000570382
-0.00109616
0.000485771
-0.00109635
0.000403011
-0.00109794
0.000321591
-0.0011007
0.000240969
-0.00110433
0.000160691
-0.00110861
8.04207e-05
-0.00111342
-6.77716e-08
-0.00111872
-8.09248e-05
-0.00112464
-0.000162196
-0.0011314
-0.000243922
-0.00113944
-0.000326164
-0.00114942
-0.000409063
-0.00116229
-0.000492947
-0.00117921
-0.000578453
-0.00120126
-0.000666662
-0.0012288
-0.00075908
-0.00126037
-0.000857263
-0.00129126
-0.000961777
-0.00131234
-0.00107034
-0.00131008
-0.00117542
-0.00126855
-0.00126233
-0.001174
-0.00130947
-0.00102095
-0.00129222
-0.000817735
-0.00119092
-0.000588573
-0.00100134
-0.000369016
-0.00074342
-0.000193674
-0.00046193
-8.02613e-05
-0.000212781
-2.22088e-05
-3.67476e-05
8.95929e-08
5.88756e-05
3.21755e-06
8.60432e-05
5.07146e-05
-4.44152e-05
0.000130553
-0.00012315
0.000289932
-0.000218424
0.000432863
-0.000325483
0.000585042
-0.000440324
0.000740288
-0.000557101
0.00088539
-0.00066888
0.00100738
-0.000769126
0.00109611
-0.000852919
0.00114603
-0.000917598
0.00115671
-0.000962936
0.00113209
-0.000990921
0.00107919
-0.00100517
0.00100646
-0.00101004
0.000922115
-0.00100977
0.000832846
-0.0010077
0.000743154
-0.00100603
0.000655371
-0.00100583
0.000570183
-0.00100736
0.000487303
-0.00101041
0.00040606
-0.00101458
0.000325767
-0.0010195
0.000245881
-0.00102484
0.000166035
-0.00103043
8.60042e-05
-0.00103615
5.65411e-06
-0.00104198
-7.50968e-05
-0.00104794
-0.000156236
-0.00105411
-0.000237751
-0.00106066
-0.000319609
-0.00106794
-0.000401782
-0.00107657
-0.000484315
-0.00108758
-0.000567451
-0.00110241
-0.000651832
-0.00112275
-0.000738741
-0.0011498
-0.000830213
-0.00118289
-0.000928686
-0.00121753
-0.00103569
-0.00124367
-0.00114928
-0.00124545
-0.00126055
-0.00120398
-0.00135094
-0.00110345
-0.00139275
-0.000939073
-0.0013553
-0.000723789
-0.00121662
-0.000489376
-0.000977834
-0.000278188
-0.000673119
-0.000125317
-0.000365651
-3.98852e-05
-0.000122181
-4.56655e-06
2.35565e-05
2.96067e-06
7.85144e-05
5.36751e-05
-4.81e-05
0.000178652
-0.000131417
0.000373248
-0.000229679
0.000531125
-0.000337006
0.000692369
-0.000448567
0.000851847
-0.000558128
0.000994951
-0.000659023
0.00110827
-0.000745582
0.00118266
-0.000814145
0.0012146
-0.000863528
0.00120609
-0.000895009
0.00116357
-0.000911854
0.00109604
-0.000918461
0.00101307
-0.000919326
0.00092298
-0.000918164
0.000831684
-0.000917432
0.000742422
-0.000918322
0.000656262
-0.000921072
0.000572932
-0.000925378
0.000491608
-0.000930754
0.000411436
-0.00093675
0.000331763
-0.000943046
0.000252176
-0.000949455
0.000172445
-0.000955896
9.24458e-05
-0.000962351
1.21084e-05
-0.000968821
-6.86264e-05
-0.00097531
-0.000149746
-0.000981812
-0.00023125
-0.000988318
-0.000313102
-0.000994872
-0.000395228
-0.00100166
-0.000477528
-0.00100917
-0.000559943
-0.00101839
-0.000642607
-0.001031
-0.000726133
-0.00104922
-0.000811996
-0.00107508
-0.000902822
-0.0011087
-0.00100207
-0.00114566
-0.00111233
-0.00117449
-0.00123172
-0.00117652
-0.00134891
-0.0011297
-0.00143957
-0.00101699
-0.00146801
-0.000836559
-0.00139705
-0.000609011
-0.00120538
-0.000375864
-0.000906266
-0.000185025
-0.00055649
-6.59433e-05
-0.000241263
-1.24863e-05
-2.99022e-05
1.96199e-06
6.40658e-05
5.5637e-05
-4.9362e-05
0.000228014
-0.000134252
0.000458138
-0.000232436
0.000629308
-0.000336979
0.000796911
-0.000442515
0.000957383
-0.000542817
0.00109525
-0.00063181
0.00119727
-0.00070487
0.00125572
-0.000759653
0.00126938
-0.000796372
0.00124281
-0.000817551
0.00118475
-0.00082729
0.00110578
-0.000830204
0.00101598
-0.000830366
0.000923141
-0.000830618
0.000831936
-0.000832411
0.000744216
-0.000836079
0.00065993
-0.000841299
0.000578151
-0.000847522
0.000497832
-0.000854249
0.000418164
-0.000861148
0.000338662
-0.000868051
0.00025908
-0.000874918
0.000179312
-0.000881776
9.93048e-05
-0.000888678
1.90107e-05
-0.000895669
-6.16358e-05
-0.00090276
-0.000142654
-0.000909931
-0.000224078
-0.000917113
-0.00030592
-0.000924199
-0.000388142
-0.000931085
-0.000470643
-0.000937774
-0.000553254
-0.000944577
-0.000635804
-0.000952413
-0.000718297
-0.00096311
-0.000801299
-0.000979422
-0.00088651
-0.00100421
-0.00097728
-0.00103824
-0.0010783
-0.0010767
-0.00119326
-0.00110598
-0.00131963
-0.00110376
-0.00144179
-0.00104497
-0.0015268
-0.000913186
-0.00152884
-0.000713101
-0.00140547
-0.000476826
-0.00114254
-0.000256692
-0.000776624
-0.000101149
-0.000396807
-2.38202e-05
-0.00010723
2.29587e-07
4.00146e-05
5.58664e-05
-4.81295e-05
0.000276144
-0.000131654
0.000541663
-0.000226967
0.00072462
-0.000326196
0.00089614
-0.000423721
0.00105491
-0.000513632
0.00118516
-0.00059065
0.00127428
-0.000651265
0.00131634
-0.000694377
0.00131249
-0.000721372
0.00126981
-0.000735637
0.00119902
-0.000741604
0.00111174
-0.000743601
0.00101798
-0.000744927
0.000924467
-0.000747448
0.000834457
-0.000751744
0.000748512
-0.000757571
0.000665757
-0.000764359
0.00058494
-0.000771563
0.000505037
-0.000778825
0.000425426
-0.000785982
0.000345819
-0.000793018
0.000266117
-0.0008
0.000186294
-0.000807019
0.000106325
-0.000814163
2.61558e-05
-0.0008215
-5.42981e-05
-0.000829058
-0.000135096
-0.000836833
-0.000216303
-0.000844768
-0.000297984
-0.000852741
-0.000380168
-0.00086056
-0.000462823
-0.000867989
-0.000545824
-0.000874857
-0.000628935
-0.000881295
-0.000711859
-0.000888137
-0.000794457
-0.000897388
-0.000877258
-0.000912367
-0.000962301
-0.000936744
-0.00105392
-0.000971653
-0.00115835
-0.00101108
-0.0012802
-0.00103801
-0.00141486
-0.00102569
-0.00153912
-0.000946948
-0.00160758
-0.000789468
-0.00156295
-0.000569579
-0.00136243
-0.000334583
-0.00101162
-0.000145207
-0.000586183
-3.89305e-05
-0.000213508
-2.37237e-06
3.4567e-06
5.3494e-05
-4.45335e-05
0.000320678
-0.000123987
0.000621118
-0.000214034
0.000814668
-0.000305993
0.000988099
-0.000394225
0.00114314
-0.000473357
0.0012643
-0.000539005
0.00133993
-0.000588732
0.00136607
-0.000622502
0.00134626
-0.000642554
0.00128986
-0.000652708
0.00120917
-0.000657274
0.00111631
-0.000659956
0.00102066
-0.000663152
0.000927664
-0.000667864
0.000839169
-0.00067406
0.000754709
-0.000681218
0.000672915
-0.00068876
0.000592482
-0.000696284
0.000512561
-0.00070361
0.000432754
-0.000710731
0.000352941
-0.00071773
0.000273117
-0.000724723
0.000193289
-0.000731825
0.000113428
-0.000739126
3.3458e-05
-0.000746696
-4.67269e-05
-0.000754568
-0.000127221
-0.000762759
-0.000208111
-0.000771244
-0.000289498
-0.000779943
-0.000371468
-0.0007887
-0.000454066
-0.000797257
-0.000537266
-0.000805272
-0.00062092
-0.000812415
-0.000704715
-0.000818657
-0.000788214
-0.000824789
-0.000871125
-0.000833082
-0.000954007
-0.00084753
-0.00103947
-0.000872567
-0.00113331
-0.000909126
-0.00124364
-0.000948625
-0.00137536
-0.00096898
-0.00151877
-0.000938651
-0.00163791
-0.000831045
-0.00167055
-0.000643738
-0.00154974
-0.000410889
-0.00124447
-0.000196102
-0.00080097
-5.84426e-05
-0.000351166
-5.90871e-06
-4.90778e-05
4.75853e-05
-3.88565e-05
0.000359534
-0.000111867
0.000694129
-0.0001947
0.000897502
-0.000277981
0.00107138
-0.000356228
0.00122139
-0.000424737
0.00133281
-0.000480027
0.00139522
-0.000520606
0.00140665
-0.000547249
0.0013729
-0.000562689
0.0013053
-0.000570778
0.00121726
-0.000575378
0.00112091
-0.000579415
0.0010247
-0.000584451
0.000932701
-0.000590839
0.000845558
-0.000598215
0.000762087
-0.000606009
0.00068071
-0.000613767
0.000600241
-0.000621266
0.000520062
-0.000628483
0.000439972
-0.000635507
0.000359967
-0.000642469
0.000280081
-0.000649496
0.000200318
-0.000656694
0.000120627
-0.000664142
4.09075e-05
-0.000671901
-3.89656e-05
-0.000680003
-0.000119118
-0.000688469
-0.000199643
-0.000697301
-0.000280666
-0.000706462
-0.000362305
-0.000715862
-0.000444664
-0.00072532
-0.000527807
-0.00073453
-0.000611709
-0.000743052
-0.000696191
-0.000750423
-0.000780843
-0.00075649
-0.000865057
-0.000762098
-0.000948399
-0.000769959
-0.00103161
-0.000784921
-0.00111835
-0.000812011
-0.00121655
-0.000850866
-0.00133651
-0.000888229
-0.0014814
-0.000895201
-0.00163093
-0.000836648
-0.00172911
-0.000692194
-0.00169419
-0.000477564
-0.0014591
-0.000249838
-0.00102869
-8.24808e-05
-0.000518524
-1.03631e-05
-0.000121195
3.72222e-05
-3.14761e-05
0.000391012
-9.60514e-05
0.000758706
-0.000170158
0.00097161
-0.000243835
0.00114506
-0.000311856
0.00128941
-0.000370243
0.00139119
-0.000416357
0.00144134
-0.000449469
0.00143976
-0.000470876
0.00139431
-0.000483464
0.00131789
-0.000490806
0.0012246
-0.000496131
0.00112624
-0.000501589
0.00103016
-0.000508071
0.000939184
-0.00051553
0.000853018
-0.000523486
0.000770044
-0.000531455
0.00068868
-0.00053915
0.000607938
-0.000546504
0.000527418
-0.000553595
0.000447065
-0.00056056
0.000366933
-0.000567537
0.00028706
-0.000574641
0.000207424
-0.000581963
0.000127951
-0.000589569
4.85156e-05
-0.000597511
-3.10209e-05
-0.000605814
-0.000110814
-0.000614498
-0.000190957
-0.000623573
-0.000271589
-0.000633028
-0.000352848
-0.000642822
-0.000434869
-0.000652853
-0.000517774
-0.000662921
-0.00060164
-0.000672671
-0.000686441
-0.000681572
-0.00077194
-0.000689041
-0.000857588
-0.000694867
-0.000942572
-0.000700116
-0.00102636
-0.000708231
-0.00111023
-0.000725105
-0.00119968
-0.000755815
-0.0013058
-0.000796706
-0.00144051
-0.000827
-0.00160064
-0.000810201
-0.0017459
-0.000712103
-0.00179229
-0.000528137
-0.00164306
-0.000301264
-0.00125557
-0.000110049
-0.000709739
-1.5739e-05
-0.000215504
2.14833e-05
-2.28194e-05
0.000413832
-7.735e-05
0.000813238
-0.000141611
0.00103587
-0.000205139
0.00120859
-0.000263002
0.00134727
-0.000311941
0.00144013
-0.000350054
0.00147945
-0.000377163
0.00146687
-0.000394813
0.00141196
-0.000405754
0.00132883
-0.000413074
0.00123192
-0.000419311
0.00113248
-0.000425939
0.00103679
-0.000433378
0.000946625
-0.000441383
0.000861024
-0.000449502
0.000778165
-0.000457389
0.000696569
-0.000464909
0.00061546
-0.000472104
0.000534614
-0.000479102
0.000454065
-0.000486051
0.000373885
-0.000493077
0.000294088
-0.000500279
0.000214629
-0.000507734
0.000135409
-0.0005155
5.62844e-05
-0.000523626
-2.28921e-05
-0.000532128
-0.000102308
-0.000541026
-0.000182057
-0.000550326
-0.000262286
-0.000560026
-0.000343146
-0.000570105
-0.000424788
-0.000580514
-0.000507363
-0.00059114
-0.000591013
-0.000601753
-0.000675826
-0.000611941
-0.000761751
-0.000621077
-0.000848452
-0.000628475
-0.000935172
-0.000633981
-0.00102086
-0.000639159
-0.00110505
-0.000648581
-0.00119026
-0.000669225
-0.00128515
-0.000704826
-0.00140491
-0.000745134
-0.00156033
-0.000758983
-0.00173205
-0.00070468
-0.00184659
-0.000558838
-0.00178891
-0.000345463
-0.00146894
-0.000139211
-0.00091599
-2.19246e-05
-0.00033279
-4.41001e-07
-1.33271e-05
0.00042716
-5.65603e-05
0.000856473
-0.000110178
0.00108949
-0.000163297
0.00126171
-0.000211253
0.00139523
-0.000251455
0.00148034
-0.000282612
0.00151061
-0.000304896
0.00148915
-0.000319853
0.00142692
-0.000329888
0.00133887
-0.000337492
0.00123953
-0.00034454
0.00113953
-0.000351971
0.00104422
-0.000359917
0.000954572
-0.000368078
0.000869187
-0.0003761
0.000786189
-0.000383778
0.000704249
-0.000391091
0.000622775
-0.00039814
0.000541665
-0.000405069
0.000460998
-0.000412017
0.000380836
-0.000419094
0.000301168
-0.000426383
0.000221922
-0.000433956
0.000142985
-0.000441869
6.42013e-05
-0.000450173
-1.45842e-05
-0.000458882
-9.35965e-05
-0.000468009
-0.000172927
-0.000477557
-0.000252735
-0.00048752
-0.00033318
-0.000497885
-0.000414421
-0.000508622
-0.000496624
-0.00051967
-0.000579963
-0.000530895
-0.000664599
-0.000542025
-0.000750619
-0.000552569
-0.000837906
-0.000561791
-0.000925949
-0.000568953
-0.00101369
-0.000574149
-0.00109986
-0.00057988
-0.00118452
-0.000592299
-0.00127273
-0.000618913
-0.0013783
-0.000659135
-0.00152011
-0.000691593
-0.0016996
-0.000674174
-0.00186401
-0.000568841
-0.00189424
-0.000378806
-0.00165898
-0.000167464
-0.00112733
-2.91073e-05
-0.000471146
-2.95481e-05
-3.41687e-06
0.000430579
-3.44421e-05
0.000887501
-7.68581e-05
0.00113191
-0.000119494
0.00130435
-0.000157873
0.00143361
-0.000189994
0.00151246
-0.000215049
0.00153567
-0.000233379
0.00150749
-0.000246344
0.00143989
-0.000255865
0.00134839
-0.000263798
0.00124746
-0.000271428
0.00114716
-0.0002793
0.00105209
-0.000287393
0.000962667
-0.000295443
0.000877239
-0.000303215
0.000793963
-0.00031062
0.000711657
-0.000317712
0.000629869
-0.000324616
0.000548573
-0.000331473
0.000467858
-0.000338405
0.00038777
-0.000345506
0.000308273
-0.000352853
0.000229273
-0.000360512
0.000150649
-0.000368549
7.22424e-05
-0.000377017
-6.11123e-06
-0.000385934
-8.46753e-05
-0.00039531
-0.000163547
-0.00040514
-0.000242902
-0.000415413
-0.000322904
-0.000426112
-0.000403719
-0.000437215
-0.000485519
-0.000448683
-0.000568494
-0.000460435
-0.000652845
-0.000472303
-0.000738749
-0.00048395
-0.000826258
-0.000494777
-0.00091512
-0.00050394
-0.00100453
-0.000510752
-0.00109304
-0.000515915
-0.00117936
-0.000523487
-0.00126516
-0.00054142
-0.00136036
-0.000575714
-0.00148581
-0.000616192
-0.00165912
-0.000626494
-0.00185371
-0.00055981
-0.00196092
-0.00039944
-0.00181935
-0.000192435
-0.00133433
-3.73378e-05
-0.000626243
-6.68855e-05
6.3736e-06
0.000424207
-1.16539e-05
0.000905531
-4.25312e-05
0.00116279
-7.47046e-05
0.00133652
-0.000103837
0.00146275
-0.000128416
0.00153704
-0.000148001
0.00155525
-0.000162964
0.00152245
-0.000174348
0.00145127
-0.00018351
0.00135755
-0.000191679
0.00125564
-0.000199634
0.00115512
-0.000207638
0.0010601
-0.000215613
0.000970644
-0.000223372
0.000885002
-0.000230797
0.00080139
-0.000237887
0.00071875
-0.000244736
0.000636722
-0.000251475
0.000555315
-0.000258231
0.000474617
-0.000265109
0.000394653
-0.000272196
0.000315364
-0.000279561
0.000236643
-0.000287271
0.000158363
-0.000295401
8.03774e-05
-0.000304012
2.50512e-06
-0.000313135
-7.55473e-05
-0.000322774
-0.000153904
-0.000332917
-0.000232755
-0.000343548
-0.00031227
-0.000354645
-0.000392618
-0.000366186
-0.000473976
-0.000378138
-0.000556539
-0.000390449
-0.000640532
-0.000403009
-0.000726187
-0.000415593
-0.000813673
-0.000427766
-0.000902946
-0.000438803
-0.000993491
-0.000447785
-0.00108406
-0.000454311
-0.00117283
-0.000460293
-0.00125918
-0.000472061
-0.00134859
-0.000498534
-0.00145934
-0.000539324
-0.00161833
-0.000567905
-0.00182513
-0.000535074
-0.00199375
-0.000407252
-0.00194717
-0.000212407
-0.00152918
-4.62147e-05
-0.000792434
-0.0001131