/*--------------------------------*- C++ -*----------------------------------*\
  =========                 |
  \\      /  F ield         | OpenFOAM: The Open Source CFD Toolbox
   \\    /   O peration     | Website:  https://openfoam.org
    \\  /    A nd           | Version:  7
     \\/     M anipulation  |
\*---------------------------------------------------------------------------*/
FoamFile
{
    version     2.0;
    format      ascii;
    class       volVectorField;
    location    "250";
    object      U;
}
// * * * * * * * * * * * * * * * * * * * * * * * * * * * * * * * * * * * * * //

dimensions      [0 1 -1 0 0 0 0];

internalField   nonuniform List<vector> 
2500
(
(0.000206066 -0.00020729 0)
(0.00187135 -0.000576046 0)
(0.00448876 -0.000701255 0)
(0.00718069 -0.000602539 0)
(0.00924493 -0.000420736 0)
(0.010462 -0.000265979 0)
(0.0109368 -0.000190071 0)
(0.010882 -0.000188443 0)
(0.0104439 -0.000222658 0)
(0.00961528 -0.000247946 0)
(0.00824452 -0.000230389 0)
(0.00609704 -0.000151158 0)
(0.0029135 -1.15594e-06 0)
(-0.00155185 0.000224998 0)
(-0.00750571 0.000530583 0)
(-0.0150824 0.000919527 0)
(-0.024306 0.00139228 0)
(-0.0350474 0.00193762 0)
(-0.0469894 0.00252253 0)
(-0.0596057 0.00308445 0)
(-0.0721666 0.00353291 0)
(-0.0837761 0.0037623 0)
(-0.0934413 0.00367287 0)
(-0.100173 0.00319771 0)
(-0.103098 0.00232892 0)
(-0.101532 0.00112297 0)
(-0.0951884 -0.000290735 0)
(-0.0841308 -0.00174529 0)
(-0.0688137 -0.00306641 0)
(-0.0500809 -0.00408587 0)
(-0.0291389 -0.00465857 0)
(-0.00747633 -0.0046644 0)
(0.0133738 -0.00402801 0)
(0.0319348 -0.00288959 0)
(0.0468909 -0.00148085 0)
(0.0572565 1.85925e-05 0)
(0.0626229 0.00140287 0)
(0.0631797 0.00246209 0)
(0.0597069 0.00306605 0)
(0.0533657 0.00320238 0)
(0.0453908 0.00298072 0)
(0.0368951 0.00255366 0)
(0.0287285 0.00205718 0)
(0.0214237 0.00158385 0)
(0.015221 0.00118298 0)
(0.0101387 0.000870765 0)
(0.00607144 0.000637192 0)
(0.00292757 0.000440914 0)
(0.000807694 0.000196766 0)
(-7.98262e-05 -8.51337e-05 0)
(0.000568727 -0.0018346 0)
(0.0043885 -0.00433673 0)
(0.00960203 -0.00513232 0)
(0.0146198 -0.00444784 0)
(0.0181637 -0.00299799 0)
(0.0197495 -0.00145266 0)
(0.0194171 -0.000184273 0)
(0.0173761 0.000777999 0)
(0.0137075 0.00164553 0)
(0.00821579 0.00269842 0)
(0.00045829 0.00415403 0)
(-0.0101267 0.00611779 0)
(-0.0240715 0.00859355 0)
(-0.0417402 0.011514 0)
(-0.0632113 0.0147401 0)
(-0.0881724 0.0180446 0)
(-0.115857 0.0211047 0)
(-0.145062 0.0235259 0)
(-0.174253 0.0248976 0)
(-0.201744 0.0248617 0)
(-0.225874 0.0231704 0)
(-0.245159 0.0197232 0)
(-0.258399 0.0145829 0)
(-0.264735 0.00797937 0)
(-0.263689 0.000299715 0)
(-0.255189 -0.00794297 0)
(-0.239431 -0.0161767 0)
(-0.216853 -0.0238485 0)
(-0.188213 -0.0303956 0)
(-0.154586 -0.0352816 0)
(-0.117374 -0.0380405 0)
(-0.0782687 -0.0383238 0)
(-0.0391752 -0.0359702 0)
(-0.00204412 -0.031149 0)
(0.0312761 -0.0243501 0)
(0.0590965 -0.0162979 0)
(0.0800897 -0.00781493 0)
(0.0934995 0.000217814 0)
(0.0991864 0.00695087 0)
(0.0977154 0.0117883 0)
(0.0905263 0.0145156 0)
(0.0793999 0.0153212 0)
(0.0661657 0.0146637 0)
(0.0524327 0.0130967 0)
(0.0393941 0.0111295 0)
(0.0277596 0.00913352 0)
(0.0178304 0.00727548 0)
(0.00972183 0.00546092 0)
(0.00374621 0.00336586 0)
(0.000332857 0.000930793 0)
(0.000789247 -0.004518 0)
(0.00569941 -0.00972601 0)
(0.0117244 -0.0109366 0)
(0.0168934 -0.00900554 0)
(0.0197169 -0.00540493 0)
(0.0196196 -0.00143547 0)
(0.0165184 0.00220145 0)
(0.0104064 0.00549179 0)
(0.00105043 0.00888 0)
(-0.0120905 0.012935 0)
(-0.0297349 0.0180412 0)
(-0.0525115 0.0242727 0)
(-0.0807207 0.0314138 0)
(-0.11412 0.0389951 0)
(-0.151818 0.0463295 0)
(-0.19232 0.0525926 0)
(-0.23372 0.0569583 0)
(-0.273974 0.0587411 0)
(-0.311154 0.0574982 0)
(-0.343637 0.0530676 0)
(-0.370196 0.0455522 0)
(-0.389994 0.0352691 0)
(-0.402529 0.0226905 0)
(-0.407553 0.00839439 0)
(-0.404997 -0.00697277 0)
(-0.394845 -0.0227325 0)
(-0.377127 -0.0381807 0)
(-0.352106 -0.0525345 0)
(-0.320254 -0.0649608 0)
(-0.282326 -0.0746186 0)
(-0.239397 -0.0807287 0)
(-0.192889 -0.0826707 0)
(-0.144551 -0.0800985 0)
(-0.0963833 -0.0730507 0)
(-0.0505016 -0.0620533 0)
(-0.00891685 -0.0481037 0)
(0.0266429 -0.0324867 0)
(0.0547965 -0.0166627 0)
(0.0748271 -0.00192723 0)
(0.0864809 0.0105187 0)
(0.0899717 0.0197523 0)
(0.0865362 0.0253886 0)
(0.0778716 0.0276417 0)
(0.0658648 0.0271911 0)
(0.0523205 0.0249333 0)
(0.0387104 0.0217271 0)
(0.026048 0.0181491 0)
(0.0149861 0.0142766 0)
(0.00626807 0.00962016 0)
(0.000707702 0.0036087 0)
(0.000920655 -0.00775424 0)
(0.00606819 -0.0156221 0)
(0.0115226 -0.0165417 0)
(0.0150966 -0.0124198 0)
(0.0152896 -0.00566723 0)
(0.0115431 0.00179786 0)
(0.00362816 0.00907617 0)
(-0.00881301 0.0162865 0)
(-0.0264548 0.0241983 0)
(-0.0501167 0.0335612 0)
(-0.080431 0.044647 0)
(-0.117479 0.0571024 0)
(-0.160569 0.0700384 0)
(-0.208218 0.0822204 0)
(-0.258363 0.0923133 0)
(-0.308705 0.0991319 0)
(-0.357065 0.101835 0)
(-0.401643 0.100012 0)
(-0.44112 0.0936594 0)
(-0.474639 0.0830896 0)
(-0.5017 0.068809 0)
(-0.522023 0.0514175 0)
(-0.535432 0.0315414 0)
(-0.541777 0.0098108 0)
(-0.540907 -0.0131219 0)
(-0.532638 -0.036538 0)
(-0.516837 -0.0596028 0)
(-0.49347 -0.0813606 0)
(-0.462631 -0.100751 0)
(-0.424621 -0.116634 0)
(-0.380042 -0.127869 0)
(-0.329884 -0.133443 0)
(-0.275598 -0.132639 0)
(-0.219104 -0.125228 0)
(-0.162708 -0.111619 0)
(-0.108894 -0.0928999 0)
(-0.0600257 -0.0707596 0)
(-0.0179998 -0.0472084 0)
(0.0159685 -0.0241734 0)
(0.0412666 -0.00341501 0)
(0.0578524 0.0138165 0)
(0.0659521 0.0265863 0)
(0.0666656 0.0345017 0)
(0.0615404 0.0378855 0)
(0.0523609 0.0376303 0)
(0.0409189 0.0348687 0)
(0.0287719 0.0305611 0)
(0.0171652 0.0250561 0)
(0.00741372 0.0177752 0)
(0.000861711 0.00738981 0)
(0.00100075 -0.0110431 0)
(0.00559084 -0.0208367 0)
(0.00915931 -0.0203099 0)
(0.00953547 -0.0128076 0)
(0.00538489 -0.00178778 0)
(-0.00381323 0.0103297 0)
(-0.0185329 0.0226555 0)
(-0.039538 0.0356449 0)
(-0.0677638 0.0502377 0)
(-0.10385 0.0669466 0)
(-0.147668 0.0853774 0)
(-0.198107 0.104278 0)
(-0.253194 0.121902 0)
(-0.310455 0.136449 0)
(-0.367372 0.14644 0)
(-0.421772 0.150939 0)
(-0.472027 0.149598 0)
(-0.517079 0.142562 0)
(-0.556328 0.130301 0)
(-0.589476 0.113446 0)
(-0.616393 0.0926726 0)
(-0.637015 0.0686383 0)
(-0.65129 0.0419718 0)
(-0.659152 0.0132879 0)
(-0.660503 -0.0167754 0)
(-0.65521 -0.0475055 0)
(-0.643058 -0.0780604 0)
(-0.623767 -0.107444 0)
(-0.597033 -0.134486 0)
(-0.562609 -0.15784 0)
(-0.520424 -0.176028 0)
(-0.470745 -0.187572 0)
(-0.414353 -0.191198 0)
(-0.352693 -0.186102 0)
(-0.287944 -0.172229 0)
(-0.222926 -0.150477 0)
(-0.160806 -0.122709 0)
(-0.104603 -0.0915245 0)
(-0.0566408 -0.0597875 0)
(-0.0181476 -0.0300465 0)
(0.0107252 -0.00410726 0)
(0.0303733 0.0168133 0)
(0.0413334 0.032036 0)
(0.0448015 0.041393 0)
(0.0422928 0.0454069 0)
(0.0355285 0.0451362 0)
(0.0262709 0.0416871 0)
(0.0161828 0.0355834 0)
(0.00708194 0.0261687 0)
(0.000793194 0.0113971 0)
(0.000993254 -0.0139338 0)
(0.00411365 -0.0242568 0)
(0.00445286 -0.0207661 0)
(0.000165077 -0.008536 0)
(-0.00982014 0.0079246 0)
(-0.0260704 0.0259464 0)
(-0.0493369 0.044941 0)
(-0.0805994 0.0655842 0)
(-0.120555 0.0885167 0)
(-0.168984 0.113396 0)
(-0.2245 0.138736 0)
(-0.284761 0.162365 0)
(-0.346975 0.182058 0)
(-0.408442 0.196049 0)
(-0.466953 0.203291 0)
(-0.520952 0.203468 0)
(-0.569498 0.196831 0)
(-0.612118 0.183981 0)
(-0.64865 0.165678 0)
(-0.679125 0.142707 0)
(-0.703686 0.115823 0)
(-0.722549 0.0857183 0)
(-0.73595 0.05303 0)
(-0.744089 0.0183496 0)
(-0.747079 -0.0177505 0)
(-0.744925 -0.0546728 0)
(-0.737431 -0.0917278 0)
(-0.724159 -0.128055 0)
(-0.704487 -0.162564 0)
(-0.677637 -0.193881 0)
(-0.642797 -0.220343 0)
(-0.599298 -0.240075 0)
(-0.546861 -0.251175 0)
(-0.485896 -0.252013 0)
(-0.417776 -0.241624 0)
(-0.344998 -0.220117 0)
(-0.271105 -0.18896 0)
(-0.200281 -0.15098 0)
(-0.136597 -0.10994 0)
(-0.0830999 -0.0697429 0)
(-0.0411363 -0.0335512 0)
(-0.0103669 -0.00327233 0)
(0.0103721 0.0203359 0)
(0.0222754 0.0369922 0)
(0.0267675 0.0469023 0)
(0.0255098 0.0508366 0)
(0.0202893 0.0497814 0)
(0.0129791 0.0442407 0)
(0.00570721 0.0334457 0)
(0.000586096 0.0148882 0)
(0.000831938 -0.0158437 0)
(0.0014017 -0.0246543 0)
(-0.0027869 -0.0164767 0)
(-0.0130058 0.00176375 0)
(-0.030037 0.0248149 0)
(-0.054561 0.0500949 0)
(-0.0874764 0.0773005 0)
(-0.129523 0.10688 0)
(-0.180536 0.13855 0)
(-0.239038 0.170727 0)
(-0.302462 0.200907 0)
(-0.367749 0.226451 0)
(-0.431984 0.245261 0)
(-0.492821 0.256108 0)
(-0.548637 0.258636 0)
(-0.598477 0.253164 0)
(-0.6419 0.240423 0)
(-0.678844 0.221344 0)
(-0.709515 0.196907 0)
(-0.734323 0.16806 0)
(-0.753809 0.135663 0)
(-0.768578 0.100459 0)
(-0.779214 0.0630639 0)
(-0.786203 0.0239803 0)
(-0.789878 -0.0163695 0)
(-0.790391 -0.0575988 0)
(-0.787655 -0.0992895 0)
(-0.781221 -0.140872 0)
(-0.770342 -0.181526 0)
(-0.753934 -0.220086 0)
(-0.73063 -0.25496 0)
(-0.698908 -0.284124 0)
(-0.657329 -0.30521 0)
(-0.60489 -0.315754 0)
(-0.541472 -0.31361 0)
(-0.468289 -0.297508 0)
(-0.388187 -0.267644 0)
(-0.305621 -0.226109 0)
(-0.226106 -0.176882 0)
(-0.155128 -0.125193 0)
(-0.0967419 -0.076267 0)
(-0.0524788 -0.0339571 0)
(-0.0213785 -7.42701e-05 0)
(-0.00124754 0.0252145 0)
(0.00992081 0.0422453 0)
(0.0140316 0.0516337 0)
(0.0130187 0.054169 0)
(0.0089043 0.0502019 0)
(0.00395479 0.0388421 0)
(0.000357459 0.0174615 0)
(0.000450465 -0.0160243 0)
(-0.00268997 -0.020752 0)
(-0.0125318 -0.00627167 0)
(-0.0296231 0.0191142 0)
(-0.0544917 0.0498402 0)
(-0.0878882 0.0835734 0)
(-0.130519 0.119948 0)
(-0.182353 0.158583 0)
(-0.242015 0.197879 0)
(-0.306874 0.235096 0)
(-0.373667 0.267179 0)
(-0.439226 0.291609 0)
(-0.500971 0.306861 0)
(-0.557096 0.312448 0)
(-0.60653 0.308702 0)
(-0.648808 0.296492 0)
(-0.68394 0.276968 0)
(-0.712312 0.251383 0)
(-0.734597 0.220971 0)
(-0.751651 0.186854 0)
(-0.764414 0.149974 0)
(-0.773795 0.11106 0)
(-0.780601 0.0706328 0)
(-0.785473 0.0290361 0)
(-0.788878 -0.0135099 0)
(-0.791083 -0.0568625 0)
(-0.792126 -0.100903 0)
(-0.791708 -0.145416 0)
(-0.789206 -0.18997 0)
(-0.783577 -0.233801 0)
(-0.773315 -0.275677 0)
(-0.756467 -0.313787 0)
(-0.73075 -0.345694 0)
(-0.693844 -0.368428 0)
(-0.643873 -0.378794 0)
(-0.580036 -0.373922 0)
(-0.50329 -0.352044 0)
(-0.41685 -0.313342 0)
(-0.326237 -0.260582 0)
(-0.238576 -0.199145 0)
(-0.161074 -0.136101 0)
(-0.0989682 -0.0783338 0)
(-0.053909 -0.0304639 0)
(-0.0240414 0.0060197 0)
(-0.00591719 0.0318017 0)
(0.0033531 0.0478195 0)
(0.00628158 0.0549142 0)
(0.00518809 0.0533622 0)
(0.0024464 0.0422369 0)
(0.00020581 0.0191018 0)
(-0.000193379 -0.0136421 0)
(-0.00810848 -0.0114837 0)
(-0.0244025 0.0106866 0)
(-0.0488579 0.0441026 0)
(-0.0817861 0.0833519 0)
(-0.123809 0.126213 0)
(-0.17503 0.171723 0)
(-0.234326 0.218235 0)
(-0.299185 0.26286 0)
(-0.366244 0.302133 0)
(-0.432082 0.333013 0)
(-0.493817 0.35353 0)
(-0.549376 0.362935 0)
(-0.597504 0.361502 0)
(-0.637665 0.350217 0)
(-0.669924 0.330483 0)
(-0.69484 0.303888 0)
(-0.713336 0.272024 0)
(-0.726556 0.236342 0)
(-0.735706 0.198047 0)
(-0.74193 0.158049 0)
(-0.746222 0.116959 0)
(-0.749385 0.0751288 0)
(-0.752027 0.0327134 0)
(-0.754601 -0.0102676 0)
(-0.757413 -0.0538789 0)
(-0.760589 -0.0982297 0)
(-0.764053 -0.143399 0)
(-0.76749 -0.189334 0)
(-0.77022 -0.235746 0)
(-0.771069 -0.281959 0)
(-0.768249 -0.326717 0)
(-0.759299 -0.368009 0)
(-0.741189 -0.402952 0)
(-0.710647 -0.427859 0)
(-0.664785 -0.438604 0)
(-0.601977 -0.43135 0)
(-0.522837 -0.403618 0)
(-0.430981 -0.355492 0)
(-0.333165 -0.290552 0)
(-0.23839 -0.215955 0)
(-0.155799 -0.141097 0)
(-0.0918029 -0.0748403 0)
(-0.0478456 -0.0225116 0)
(-0.0207592 0.0150545 0)
(-0.00570786 0.0395522 0)
(0.00105005 0.0523675 0)
(0.00258799 0.0540957 0)
(0.00157326 0.0440146 0)
(0.000182078 0.0200934 0)
(-0.00109908 -0.00793591 0)
(-0.0145691 0.0038842 0)
(-0.037648 0.0347581 0)
(-0.0694367 0.0767618 0)
(-0.109976 0.124938 0)
(-0.159493 0.176805 0)
(-0.217196 0.230339 0)
(-0.280879 0.282537 0)
(-0.347239 0.329562 0)
(-0.412659 0.367764 0)
(-0.473934 0.394555 0)
(-0.528664 0.408751 0)
(-0.575347 0.410445 0)
(-0.613332 0.400686 0)
(-0.642712 0.381132 0)
(-0.664198 0.353746 0)
(-0.678956 0.320533 0)
(-0.688393 0.28333 0)
(-0.693952 0.243648 0)
(-0.696943 0.202605 0)
(-0.698447 0.160928 0)
(-0.699294 0.119013 0)
(-0.700077 0.0770093 0)
(-0.701206 0.0348932 0)
(-0.702987 -0.00746154 0)
(-0.705675 -0.0502385 0)
(-0.709412 -0.0936469 0)
(-0.714312 -0.137914 0)
(-0.720392 -0.183233 0)
(-0.727467 -0.229701 0)
(-0.734991 -0.277204 0)
(-0.741851 -0.325219 0)
(-0.746145 -0.372552 0)
(-0.74503 -0.41704 0)
(-0.734762 -0.455329 0)
(-0.711058 -0.482886 0)
(-0.669894 -0.494416 0)
(-0.608692 -0.484835 0)
(-0.527677 -0.450744 0)
(-0.430972 -0.392135 0)
(-0.326826 -0.313725 0)
(-0.2264 -0.225037 0)
(-0.140875 -0.138407 0)
(-0.0775255 -0.0649021 0)
(-0.0369087 -0.0101666 0)
(-0.0140038 0.0261522 0)
(-0.00276715 0.0466631 0)
(0.00122928 0.0529001 0)
(0.00142042 0.0447922 0)
(0.000287174 0.0208567 0)
(-0.00220666 0.00162928 0)
(-0.0215648 0.0256211 0)
(-0.0512559 0.0657831 0)
(-0.0897977 0.116532 0)
(-0.136851 0.17343 0)
(-0.19202 0.233327 0)
(-0.25356 0.292919 0)
(-0.31843 0.348048 0)
(-0.382953 0.394415 0)
(-0.44363 0.428643 0)
(-0.497695 0.448888 0)
(-0.543342 0.454877 0)
(-0.579734 0.447603 0)
(-0.606936 0.428935 0)
(-0.625772 0.401223 0)
(-0.637621 0.366936 0)
(-0.644142 0.328356 0)
(-0.647004 0.287347 0)
(-0.647664 0.245261 0)
(-0.647255 0.202941 0)
(-0.64657 0.160816 0)
(-0.646111 0.119023 0)
(-0.646159 0.0775153 0)
(-0.646863 0.0361449 0)
(-0.648334 -0.00528096 0)
(-0.650719 -0.0469666 0)
(-0.654125 -0.0891043 0)
(-0.658737 -0.131918 0)
(-0.664779 -0.175662 0)
(-0.672449 -0.220618 0)
(-0.681812 -0.267047 0)
(-0.6926 -0.315061 0)
(-0.703926 -0.364386 0)
(-0.713943 -0.41399 0)
(-0.719546 -0.461627 0)
(-0.716316 -0.503439 0)
(-0.698899 -0.533871 0)
(-0.662018 -0.546166 0)
(-0.602052 -0.533676 0)
(-0.518898 -0.491923 0)
(-0.417442 -0.420997 0)
(-0.30783 -0.327376 0)
(-0.203716 -0.223867 0)
(-0.11823 -0.126459 0)
(-0.0587497 -0.0483179 0)
(-0.0238669 0.00550009 0)
(-0.00633274 0.037199 0)
(0.000604178 0.0499825 0)
(0.00178246 0.0450916 0)
(0.0004842 0.0217715 0)
(-0.00337802 0.0152715 0)
(-0.0284451 0.053505 0)
(-0.0641039 0.103114 0)
(-0.108331 0.162302 0)
(-0.1603 0.227078 0)
(-0.218896 0.293336 0)
(-0.281558 0.35652 0)
(-0.344755 0.411699 0)
(-0.404798 0.454571 0)
(-0.458558 0.482379 0)
(-0.503853 0.494213 0)
(-0.539577 0.49081 0)
(-0.565669 0.474132 0)
(-0.582984 0.446885 0)
(-0.593058 0.412037 0)
(-0.597776 0.372379 0)
(-0.599024 0.330205 0)
(-0.598413 0.287148 0)
(-0.597137 0.244191 0)
(-0.595949 0.201786 0)
(-0.595249 0.160032 0)
(-0.595187 0.118827 0)
(-0.595767 0.0779886 0)
(-0.59693 0.0373165 0)
(-0.598638 -0.00337743 0)
(-0.600939 -0.0442526 0)
(-0.603888 -0.085426 0)
(-0.607633 -0.127033 0)
(-0.612423 -0.169254 0)
(-0.618597 -0.21235 0)
(-0.626551 -0.25668 0)
(-0.636635 -0.302682 0)
(-0.648933 -0.350753 0)
(-0.662908 -0.400961 0)
(-0.676903 -0.452542 0)
(-0.68766 -0.503217 0)
(-0.690097 -0.548552 0)
(-0.677714 -0.581716 0)
(-0.643868 -0.594113 0)
(-0.583895 -0.57719 0)
(-0.497585 -0.525355 0)
(-0.39109 -0.439312 0)
(-0.277061 -0.328407 0)
(-0.171978 -0.210034 0)
(-0.0904538 -0.104457 0)
(-0.0385329 -0.0260768 0)
(-0.0114945 0.0222726 0)
(-0.000245051 0.044898 0)
(0.00226004 0.0450495 0)
(0.000716837 0.0230381 0)
(-0.00445 0.0328202 0)
(-0.0345594 0.0868514 0)
(-0.0751394 0.145675 0)
(-0.123621 0.212548 0)
(-0.178631 0.283835 0)
(-0.238377 0.354359 0)
(-0.299732 0.418536 0)
(-0.359007 0.47108 0)
(-0.412769 0.508075 0)
(-0.458425 0.527635 0)
(-0.494492 0.529927 0)
(-0.520655 0.516788 0)
(-0.537675 0.491171 0)
(-0.547144 0.456534 0)
(-0.551118 0.41625 0)
(-0.551687 0.373141 0)
(-0.550631 0.329215 0)
(-0.549226 0.285651 0)
(-0.54822 0.242948 0)
(-0.547935 0.201163 0)
(-0.548409 0.160118 0)
(-0.549541 0.119564 0)
(-0.551179 0.079266 0)
(-0.553175 0.0390339 0)
(-0.555427 -0.00127371 0)
(-0.557937 -0.0417548 0)
(-0.560727 -0.0824499 0)
(-0.56386 -0.123404 0)
(-0.5675 -0.164688 0)
(-0.571912 -0.206432 0)
(-0.5775 -0.248887 0)
(-0.584806 -0.292478 0)
(-0.594442 -0.337825 0)
(-0.606874 -0.385652 0)
(-0.621987 -0.436449 0)
(-0.638413 -0.489806 0)
(-0.652795 -0.543426 0)
(-0.659355 -0.59213 0)
(-0.650323 -0.627433 0)
(-0.617603 -0.638401 0)
(-0.555617 -0.614256 0)
(-0.464552 -0.548532 0)
(-0.352652 -0.443624 0)
(-0.235891 -0.313526 0)
(-0.133718 -0.181853 0)
(-0.0610186 -0.0731728 0)
(-0.0202112 -0.000880705 0)
(-0.00237698 0.0364135 0)
(0.00241845 0.044276 0)
(0.000933023 0.0246124 0)
(-0.0052751 0.0536969 0)
(-0.0393523 0.124586 0)
(-0.083516 0.192079 0)
(-0.134621 0.265526 0)
(-0.190755 0.341625 0)
(-0.24959 0.414187 0)
(-0.307704 0.476918 0)
(-0.361521 0.524565 0)
(-0.40805 0.553902 0)
(-0.445348 0.564104 0)
(-0.472701 0.556528 0)
(-0.490612 0.534145 0)
(-0.500586 0.500818 0)
(-0.504753 0.460541 0)
(-0.505376 0.416781 0)
(-0.504417 0.372062 0)
(-0.503275 0.327868 0)
(-0.502734 0.284811 0)
(-0.503079 0.242927 0)
(-0.504275 0.201962 0)
(-0.506138 0.161587 0)
(-0.50846 0.121512 0)
(-0.511064 0.0815243 0)
(-0.51381 0.0414817 0)
(-0.516616 0.00129779 0)
(-0.519483 -0.0390792 0)
(-0.52243 -0.0796441 0)
(-0.525452 -0.120397 0)
(-0.528609 -0.161329 0)
(-0.532017 -0.202455 0)
(-0.535903 -0.243855 0)
(-0.540666 -0.285753 0)
(-0.546929 -0.328618 0)
(-0.555524 -0.373249 0)
(-0.567295 -0.420725 0)
(-0.582585 -0.47203 0)
(-0.600359 -0.527163 0)
(-0.617136 -0.583741 0)
(-0.626308 -0.635518 0)
(-0.618643 -0.671764 0)
(-0.584554 -0.678583 0)
(-0.517921 -0.642789 0)
(-0.420234 -0.557819 0)
(-0.303054 -0.429738 0)
(-0.186562 -0.279805 0)
(-0.0926953 -0.139426 0)
(-0.0340571 -0.0358277 0)
(-0.00661554 0.0226005 0)
(0.00194874 0.0419041 0)
(0.00110594 0.0262433 0)
(-0.00573454 0.0769845 0)
(-0.0424206 0.165366 0)
(-0.0886765 0.240776 0)
(-0.140741 0.319469 0)
(-0.196231 0.398565 0)
(-0.252465 0.471052 0)
(-0.305977 0.530259 0)
(-0.353502 0.571302 0)
(-0.392608 0.591873 0)
(-0.42206 0.592349 0)
(-0.441922 0.575328 0)
(-0.45343 0.544858 0)
(-0.458643 0.505512 0)
(-0.459927 0.461506 0)
(-0.459429 0.416056 0)
(-0.45872 0.371129 0)
(-0.458683 0.327568 0)
(-0.459615 0.285446 0)
(-0.461445 0.244446 0)
(-0.463935 0.204156 0)
(-0.466832 0.164219 0)
(-0.469941 0.124388 0)
(-0.47314 0.0845132 0)
(-0.476356 0.0445112 0)
(-0.479551 0.00433599 0)
(-0.482756 -0.0360417 0)
(-0.486 -0.0766063 0)
(-0.489253 -0.117355 0)
(-0.492508 -0.158259 0)
(-0.495767 -0.199277 0)
(-0.499071 -0.240375 0)
(-0.502565 -0.281573 0)
(-0.506595 -0.323052 0)
(-0.511815 -0.365306 0)
(-0.519236 -0.409311 0)
(-0.530067 -0.456538 0)
(-0.545122 -0.508534 0)
(-0.563667 -0.565725 0)
(-0.581955 -0.625425 0)
(-0.59226 -0.679737 0)
(-0.583627 -0.714806 0)
(-0.545076 -0.713069 0)
(-0.470727 -0.659135 0)
(-0.364835 -0.54814 0)
(-0.243868 -0.393124 0)
(-0.132756 -0.225986 0)
(-0.0539722 -0.0862627 0)
(-0.0134351 0.00107806 0)
(0.000704098 0.0367651 0)
(0.00124002 0.0275742 0)
(-0.00575573 0.101544 0)
(-0.0435422 0.207708 0)
(-0.0903751 0.290192 0)
(-0.14184 0.372737 0)
(-0.195184 0.453098 0)
(-0.247568 0.523689 0)
(-0.295677 0.577782 0)
(-0.336684 0.611121 0)
(-0.368775 0.622487 0)
(-0.391421 0.613533 0)
(-0.405384 0.588072 0)
(-0.412458 0.551061 0)
(-0.414986 0.507493 0)
(-0.415266 0.461462 0)
(-0.415084 0.415653 0)
(-0.415495 0.371338 0)
(-0.416881 0.328743 0)
(-0.419179 0.287526 0)
(-0.422119 0.247184 0)
(-0.425416 0.207282 0)
(-0.428856 0.167526 0)
(-0.432322 0.127751 0)
(-0.435772 0.0878783 0)
(-0.439195 0.0478684 0)
(-0.442598 0.00769623 0)
(-0.446041 -0.0326659 0)
(-0.449562 -0.0732127 0)
(-0.453138 -0.113959 0)
(-0.456741 -0.154896 0)
(-0.460326 -0.195987 0)
(-0.463833 -0.237167 0)
(-0.467218 -0.278351 0)
(-0.47053 -0.319497 0)
(-0.474037 -0.360723 0)
(-0.478393 -0.402542 0)
(-0.484775 -0.446126 0)
(-0.494753 -0.493412 0)
(-0.509596 -0.546587 0)
(-0.528758 -0.60644 0)
(-0.547899 -0.669525 0)
(-0.557705 -0.725288 0)
(-0.545213 -0.755524 0)
(-0.498482 -0.738403 0)
(-0.413309 -0.657485 0)
(-0.298852 -0.513106 0)
(-0.178145 -0.330292 0)
(-0.0801502 -0.154827 0)
(-0.0231682 -0.0309056 0)
(-0.00134576 0.0275457 0)
(0.00135411 0.0282319 0)
(-0.00531886 0.126135 0)
(-0.0426717 0.250108 0)
(-0.0886476 0.338847 0)
(-0.138148 0.423927 0)
(-0.188172 0.504042 0)
(-0.235888 0.57132 0)
(-0.278273 0.619243 0)
(-0.313006 0.644375 0)
(-0.338888 0.646689 0)
(-0.356029 0.629115 0)
(-0.365736 0.596561 0)
(-0.370131 0.554649 0)
(-0.371563 0.508466 0)
(-0.372036 0.46169 0)
(-0.372847 0.41631 0)
(-0.374554 0.372907 0)
(-0.377161 0.331206 0)
(-0.380403 0.290629 0)
(-0.383968 0.250632 0)
(-0.38762 0.21085 0)
(-0.391235 0.171089 0)
(-0.394782 0.13127 0)
(-0.398284 0.091365 0)
(-0.401771 0.0513591 0)
(-0.40527 0.0112293 0)
(-0.408856 -0.0290613 0)
(-0.412576 -0.0695243 0)
(-0.416418 -0.110196 0)
(-0.42036 -0.151096 0)
(-0.42436 -0.192222 0)
(-0.428339 -0.233534 0)
(-0.432182 -0.274947 0)
(-0.435771 -0.316328 0)
(-0.439057 -0.35756 0)
(-0.442223 -0.398696 0)
(-0.445928 -0.440277 0)
(-0.451525 -0.483735 0)
(-0.460972 -0.531598 0)
(-0.475949 -0.586793 0)
(-0.495841 -0.650246 0)
(-0.515153 -0.716841 0)
(-0.522313 -0.771772 0)
(-0.502234 -0.79096 0)
(-0.443114 -0.748373 0)
(-0.344834 -0.629574 0)
(-0.224152 -0.446225 0)
(-0.111543 -0.241795 0)
(-0.0362685 -0.076271 0)
(-0.00427338 0.0127708 0)
(0.00143971 0.0278122 0)
(-0.00445134 0.149527 0)
(-0.0399106 0.291141 0)
(-0.08375 0.385434 0)
(-0.130167 0.471916 0)
(-0.176024 0.550592 0)
(-0.218629 0.613589 0)
(-0.255339 0.654808 0)
(-0.284351 0.671759 0)
(-0.305028 0.665634 0)
(-0.317992 0.640569 0)
(-0.324904 0.602377 0)
(-0.327972 0.557059 0)
(-0.329338 0.509507 0)
(-0.330581 0.462788 0)
(-0.332516 0.41816 0)
(-0.335306 0.375611 0)
(-0.338737 0.334542 0)
(-0.342488 0.294288 0)
(-0.346296 0.254368 0)
(-0.350021 0.21453 0)
(-0.353626 0.174676 0)
(-0.357144 0.134787 0)
(-0.360637 0.0948647 0)
(-0.364148 0.0548964 0)
(-0.367707 0.0148514 0)
(-0.371385 -0.0253202 0)
(-0.375238 -0.065645 0)
(-0.37926 -0.106174 0)
(-0.383439 -0.146952 0)
(-0.387753 -0.18801 0)
(-0.392146 -0.229353 0)
(-0.396514 -0.27094 0)
(-0.400705 -0.312663 0)
(-0.404529 -0.35434 0)
(-0.407851 -0.395773 0)
(-0.410784 -0.436951 0)
(-0.414018 -0.478487 0)
(-0.419142 -0.522211 0)
(-0.428552 -0.571454 0)
(-0.444238 -0.629944 0)
(-0.465035 -0.69817 0)
(-0.483396 -0.767691 0)
(-0.484751 -0.817092 0)
(-0.452338 -0.815033 0)
(-0.376781 -0.733144 0)
(-0.265567 -0.565433 0)
(-0.145636 -0.344265 0)
(-0.0530295 -0.137168 0)
(-0.00823741 -0.00915891 0)
(0.00144932 0.025867 0)
(-0.00321812 0.170591 0)
(-0.035468 0.329522 0)
(-0.0760846 0.428864 0)
(-0.118551 0.515867 0)
(-0.159691 0.592269 0)
(-0.197039 0.65046 0)
(-0.228372 0.684911 0)
(-0.252375 0.69413 0)
(-0.268878 0.680491 0)
(-0.278856 0.649199 0)
(-0.28412 0.60674 0)
(-0.286769 0.559229 0)
(-0.288604 0.511148 0)
(-0.290756 0.464876 0)
(-0.29364 0.421004 0)
(-0.297169 0.379082 0)
(-0.301045 0.338346 0)
(-0.304984 0.298157 0)
(-0.308816 0.258148 0)
(-0.31249 0.218174 0)
(-0.316034 0.178212 0)
(-0.319516 0.138274 0)
(-0.323008 0.0983668 0)
(-0.326556 0.0584701 0)
(-0.330178 0.0185402 0)
(-0.333935 -0.0214847 0)
(-0.337888 -0.061643 0)
(-0.342036 -0.101995 0)
(-0.346368 -0.1426 0)
(-0.350877 -0.18351 0)
(-0.355537 -0.224767 0)
(-0.360283 -0.266383 0)
(-0.364998 -0.308317 0)
(-0.369493 -0.350434 0)
(-0.373519 -0.392492 0)
(-0.376864 -0.434202 0)
(-0.3796 -0.475508 0)
(-0.382515 -0.517202 0)
(-0.387547 -0.56176 0)
(-0.39759 -0.613617 0)
(-0.414697 -0.677202 0)
(-0.436286 -0.751253 0)
(-0.451518 -0.821173 0)
(-0.442388 -0.855966 0)
(-0.392183 -0.816972 0)
(-0.297934 -0.679212 0)
(-0.178964 -0.456674 0)
(-0.0729094 -0.213934 0)
(-0.0134737 -0.0399834 0)
(0.00136153 0.0219242 0)
(-0.00170936 0.188367 0)
(-0.0296197 0.364155 0)
(-0.0661303 0.468271 0)
(-0.104016 0.555204 0)
(-0.140131 0.628853 0)
(-0.172286 0.682119 0)
(-0.198678 0.710124 0)
(-0.218419 0.712367 0)
(-0.231684 0.692304 0)
(-0.239638 0.656031 0)
(-0.244063 0.610479 0)
(-0.24681 0.561662 0)
(-0.24929 0.513537 0)
(-0.252238 0.46781 0)
(-0.255787 0.424532 0)
(-0.259728 0.382974 0)
(-0.263773 0.342325 0)
(-0.267715 0.30204 0)
(-0.271476 0.261866 0)
(-0.275072 0.221748 0)
(-0.278568 0.181703 0)
(-0.282039 0.141754 0)
(-0.285557 0.101896 0)
(-0.28916 0.062097 0)
(-0.292856 0.0223013 0)
(-0.296691 -0.0175632 0)
(-0.300735 -0.0575436 0)
(-0.304989 -0.0977062 0)
(-0.309435 -0.138117 0)
(-0.314076 -0.178843 0)
(-0.3189 -0.219944 0)
(-0.323877 -0.261472 0)
(-0.328936 -0.303445 0)
(-0.333946 -0.345814 0)
(-0.338683 -0.388411 0)
(-0.342842 -0.43091 0)
(-0.346149 -0.472926 0)
(-0.348686 -0.514408 0)
(-0.351459 -0.556538 0)
(-0.356919 -0.602854 0)
(-0.368476 -0.659245 0)
(-0.387657 -0.730198 0)
(-0.409033 -0.809982 0)
(-0.417104 -0.873511 0)
(-0.391144 -0.877624 0)
(-0.31842 -0.780168 0)
(-0.208046 -0.5721 0)
(-0.0943534 -0.304581 0)
(-0.0201918 -0.0813236 0)
(0.00121582 0.0155083 0)
(-2.98197e-05 0.202097 0)
(-0.0226746 0.394134 0)
(-0.054387 0.503 0)
(-0.0872632 0.589569 0)
(-0.118227 0.660317 0)
(-0.145378 0.708875 0)
(-0.167313 0.731053 0)
(-0.183487 0.727268 0)
(-0.194291 0.70192 0)
(-0.200928 0.6618 0)
(-0.205018 0.614086 0)
(-0.208089 0.564551 0)
(-0.211175 0.516597 0)
(-0.214705 0.471347 0)
(-0.218641 0.428451 0)
(-0.222744 0.38703 0)
(-0.226786 0.346309 0)
(-0.230645 0.30585 0)
(-0.234312 0.265502 0)
(-0.237841 0.225266 0)
(-0.24131 0.185178 0)
(-0.244792 0.145251 0)
(-0.248349 0.10547 0)
(-0.252015 0.0657892 0)
(-0.255788 0.0261412 0)
(-0.259699 -0.0135533 0)
(-0.263832 -0.0533486 0)
(-0.268193 -0.0933164 0)
(-0.272749 -0.133528 0)
(-0.277506 -0.174056 0)
(-0.282459 -0.214972 0)
(-0.287594 -0.256347 0)
(-0.292875 -0.298242 0)
(-0.298224 -0.340677 0)
(-0.303488 -0.383586 0)
(-0.308406 -0.426738 0)
(-0.312615 -0.469703 0)
(-0.315802 -0.511994 0)
(-0.318148 -0.553697 0)
(-0.321069 -0.596781 0)
(-0.327735 -0.646483 0)
(-0.341876 -0.710286 0)
(-0.363251 -0.790759 0)
(-0.38152 -0.872659 0)
(-0.37587 -0.91504 0)
(-0.326099 -0.863238 0)
(-0.230188 -0.683653 0)
(-0.115266 -0.405217 0)
(-0.0283845 -0.134287 0)
(0.00107347 0.00612113 0)
(0.00171132 0.211245 0)
(-0.0149495 0.418745 0)
(-0.0413356 0.532577 0)
(-0.0689312 0.618771 0)
(-0.0947422 0.686751 0)
(-0.117141 0.731088 0)
(-0.135082 0.748264 0)
(-0.148276 0.739499 0)
(-0.157213 0.70997 0)
(-0.163011 0.66698 0)
(-0.167035 0.617799 0)
(-0.170468 0.567894 0)
(-0.17402 0.520156 0)
(-0.177901 0.47524 0)
(-0.181998 0.43253 0)
(-0.186097 0.391088 0)
(-0.190043 0.35021 0)
(-0.193785 0.309559 0)
(-0.197359 0.26906 0)
(-0.200835 0.228746 0)
(-0.20429 0.188651 0)
(-0.207786 0.148777 0)
(-0.211378 0.109093 0)
(-0.215101 0.0695453 0)
(-0.218945 0.0300579 0)
(-0.222925 -0.00945509 0)
(-0.227143 -0.0490544 0)
(-0.231617 -0.0888189 0)
(-0.236294 -0.128825 0)
(-0.24118 -0.169149 0)
(-0.24627 -0.209868 0)
(-0.251555 -0.251064 0)
(-0.257015 -0.292818 0)
(-0.262609 -0.335196 0)
(-0.268243 -0.378217 0)
(-0.273737 -0.421771 0)
(-0.278778 -0.465531 0)
(-0.282946 -0.508921 0)
(-0.28594 -0.551398 0)
(-0.288191 -0.593478 0)
(-0.291808 -0.63863 0)
(-0.300832 -0.694575 0)
(-0.318554 -0.769592 0)
(-0.34068 -0.859558 0)
(-0.349842 -0.931859 0)
(-0.32175 -0.926023 0)
(-0.243902 -0.785557 0)
(-0.133647 -0.51091 0)
(-0.037671 -0.198658 0)
(0.000917904 -0.00668833 0)
(0.00340921 0.215522 0)
(-0.00675214 0.437419 0)
(-0.0274217 0.556672 0)
(-0.0495772 0.642733 0)
(-0.0703065 0.70831 0)
(-0.088212 0.749109 0)
(-0.102557 0.762236 0)
(-0.11323 0.74957 0)
(-0.120721 0.716888 0)
(-0.125967 0.671839 0)
(-0.130032 0.621689 0)
(-0.133764 0.571594 0)
(-0.137612 0.524022 0)
(-0.141648 0.479286 0)
(-0.145741 0.436608 0)
(-0.149732 0.395049 0)
(-0.153532 0.353986 0)
(-0.157145 0.313161 0)
(-0.160626 0.272549 0)
(-0.16405 0.232193 0)
(-0.167486 0.192122 0)
(-0.170986 0.152322 0)
(-0.174599 0.112753 0)
(-0.178362 0.0733526 0)
(-0.182266 0.0340418 0)
(-0.186302 -0.00527196 0)
(-0.190598 -0.044658 0)
(-0.195192 -0.0842031 0)
(-0.200004 -0.123991 0)
(-0.205039 -0.164101 0)
(-0.210291 -0.204614 0)
(-0.21575 -0.245615 0)
(-0.221404 -0.287197 0)
(-0.227226 -0.329452 0)
(-0.233162 -0.372453 0)
(-0.239095 -0.41619 0)
(-0.244802 -0.460478 0)
(-0.249909 -0.504837 0)
(-0.25395 -0.54852 0)
(-0.256731 -0.591087 0)
(-0.259202 -0.634105 0)
(-0.264517 -0.683689 0)
(-0.277402 -0.7505 0)
(-0.298753 -0.840119 0)
(-0.316948 -0.93238 0)
(-0.307352 -0.968545 0)
(-0.248933 -0.873735 0)
(-0.148049 -0.616636 0)
(-0.0473476 -0.272741 0)
(0.000619369 -0.0233417 0)
(0.00492313 0.214757 0)
(0.00161469 0.449837 0)
(-0.0130391 0.575039 0)
(-0.0296747 0.661452 0)
(-0.0454228 0.725166 0)
(-0.0590652 0.76324 0)
(-0.0701264 0.773342 0)
(-0.0786057 0.757844 0)
(-0.0849157 0.722943 0)
(-0.0897576 0.676504 0)
(-0.0938714 0.625731 0)
(-0.0978003 0.57552 0)
(-0.101786 0.528024 0)
(-0.105823 0.483329 0)
(-0.109799 0.440577 0)
(-0.113615 0.398857 0)
(-0.117241 0.357613 0)
(-0.120711 0.316648 0)
(-0.124091 0.275961 0)
(-0.127452 0.235598 0)
(-0.130851 0.195577 0)
(-0.134336 0.155871 0)
(-0.13795 0.116431 0)
(-0.141735 0.0771937 0)
(-0.145684 0.0380802 0)
(-0.14976 -0.00100691 0)
(-0.154123 -0.0401582 0)
(-0.158839 -0.0794582 0)
(-0.163799 -0.119007 0)
(-0.169004 -0.158885 0)
(-0.174446 -0.199176 0)
(-0.180115 -0.239967 0)
(-0.185998 -0.281355 0)
(-0.192077 -0.323448 0)
(-0.198317 -0.36635 0)
(-0.204641 -0.410123 0)
(-0.210898 -0.454701 0)
(-0.216803 -0.499757 0)
(-0.221915 -0.544593 0)
(-0.225772 -0.588336 0)
(-0.228481 -0.631092 0)
(-0.231917 -0.676676 0)
(-0.240559 -0.735298 0)
(-0.258595 -0.819031 0)
(-0.280778 -0.921483 0)
(-0.285498 -0.992657 0)
(-0.246027 -0.945936 0)
(-0.15775 -0.71798 0)
(-0.0566134 -0.353865 0)
(-2.14212e-05 -0.0442406 0)
(0.00610329 0.209205 0)
(0.00978888 0.455555 0)
(0.00149484 0.587604 0)
(-0.00961466 0.674945 0)
(-0.0204865 0.737478 0)
(-0.0300442 0.773715 0)
(-0.0380366 0.78184 0)
(-0.0445243 0.764547 0)
(-0.0497958 0.728279 0)
(-0.0542829 0.681004 0)
(-0.0584012 0.629858 0)
(-0.0624175 0.579546 0)
(-0.0664118 0.532024 0)
(-0.070338 0.487259 0)
(-0.0741192 0.444366 0)
(-0.0777152 0.402472 0)
(-0.0811409 0.361074 0)
(-0.0844502 0.320007 0)
(-0.0877104 0.279283 0)
(-0.0909846 0.238943 0)
(-0.0943242 0.198993 0)