/*--------------------------------*- C++ -*----------------------------------*\
  =========                 |
  \\      /  F ield         | OpenFOAM: The Open Source CFD Toolbox
   \\    /   O peration     | Website:  https://openfoam.org
    \\  /    A nd           | Version:  7
     \\/     M anipulation  |
\*---------------------------------------------------------------------------*/
FoamFile
{
    version     2.0;
    format      ascii;
    class       volScalarField;
    location    "200";
    object      p;
}
// * * * * * * * * * * * * * * * * * * * * * * * * * * * * * * * * * * * * * //

dimensions      [0 2 -2 0 0 0 0];

internalField   nonuniform List<scalar> 
2500
(
6.41729e-07
-8.56778e-05
-0.000402392
-0.000946968
-0.00165577
-0.00248062
-0.00339009
-0.00436369
-0.0053873
-0.0064491
-0.00753622
-0.00863249
-0.00971712
-0.0107642
-0.011743
-0.0126188
-0.0133541
-0.013911
-0.0142531
-0.0143492
-0.0141761
-0.0137223
-0.0129912
-0.0120036
-0.0107999
-0.00943945
-0.00799937
-0.00657143
-0.0052566
-0.00415801
-0.00337286
-0.00298401
-0.00305214
-0.00360956
-0.00465647
-0.00616032
-0.0080582
-0.0102626
-0.0126696
-0.0151672
-0.0176438
-0.0199963
-0.0221353
-0.0239878
-0.0254978
-0.0266255
-0.027348
-0.0276613
-0.0276008
-0.0273557
8.58179e-05
-6.76332e-06
-0.000296267
-0.00078346
-0.00141648
-0.00215678
-0.00297925
-0.00386696
-0.00480766
-0.00579073
-0.0068045
-0.00783446
-0.00886206
-0.00986427
-0.0108136
-0.0116786
-0.0124253
-0.0130183
-0.0134236
-0.0136106
-0.013556
-0.0132464
-0.012682
-0.0118791
-0.010872
-0.00971351
-0.00847338
-0.00723609
-0.00609552
-0.00514834
-0.00448621
-0.00418753
-0.00430982
-0.00488354
-0.00590845
-0.00735297
-0.00915687
-0.0112366
-0.0134933
-0.0158219
-0.0181193
-0.0202914
-0.0222586
-0.0239584
-0.0253447
-0.0263879
-0.0270725
-0.0273925
-0.0273552
-0.0271093
0.000413939
0.000271895
-3.14815e-05
-0.000490265
-0.00106733
-0.00173613
-0.00247989
-0.00328751
-0.00415083
-0.00506227
-0.00601289
-0.00699088
-0.00798062
-0.00896213
-0.00991095
-0.0107984
-0.0115925
-0.0122592
-0.0127641
-0.0130756
-0.0131672
-0.0130216
-0.0126335
-0.0120134
-0.011189
-0.0102074
-0.00913245
-0.00804397
-0.00703205
-0.0061907
-0.00560998
-0.0053676
-0.00552101
-0.00610097
-0.0071077
-0.00851014
-0.0102487
-0.0122411
-0.0143903
-0.0165942
-0.0187542
-0.0207828
-0.0226079
-0.0241763
-0.0254524
-0.026416
-0.0270584
-0.0273696
-0.0273263
-0.027052
0.000994716
0.000759069
0.000395494
-7.36688e-05
-0.000629063
-0.00125705
-0.00195004
-0.00270438
-0.00351794
-0.00438801
-0.00530977
-0.00627504
-0.00727142
-0.00828164
-0.00928324
-0.0102486
-0.0111453
-0.0119376
-0.012588
-0.01306
-0.0133212
-0.0133476
-0.0131271
-0.0126631
-0.0119777
-0.0111138
-0.0101324
-0.00911227
-0.00814423
-0.00732467
-0.00674723
-0.00649393
-0.00662654
-0.00717953
-0.00815568
-0.00952496
-0.0112273
-0.0131786
-0.0152798
-0.0174267
-0.01952
-0.0214734
-0.0232188
-0.0247084
-0.0259139
-0.0268227
-0.0274313
-0.0277274
-0.0276714
-0.0273783
0.00175897
0.00139475
0.000936826
0.00043077
-0.000126784
-0.000737477
-0.00140423
-0.00213217
-0.00292642
-0.0037903
-0.00472404
-0.00572367
-0.00678015
-0.00787846
-0.00899706
-0.0101076
-0.0111751
-0.0121593
-0.0130165
-0.0137024
-0.0141763
-0.0144051
-0.0143681
-0.014061
-0.0134997
-0.0127236
-0.0117921
-0.0107844
-0.00979447
-0.00892396
-0.00827354
-0.00793339
-0.00797372
-0.00843678
-0.00933147
-0.0106316
-0.0122781
-0.0141854
-0.0162509
-0.018366
-0.0204269
-0.0223447
-0.0240511
-0.0255005
-0.0266689
-0.0275492
-0.0281428
-0.0284394
-0.0283965
-0.0281213
0.0026292
0.00211125
0.00153582
0.000974871
0.000396994
-0.000217605
-0.000883851
-0.00161667
-0.00242933
-0.00333188
-0.0043301
-0.00542452
-0.00660923
-0.00787078
-0.00918718
-0.0105274
-0.0118515
-0.0131121
-0.0142562
-0.0152292
-0.0159793
-0.0164622
-0.0166468
-0.0165195
-0.0160886
-0.0153896
-0.0144799
-0.0134393
-0.0123656
-0.0113675
-0.0105553
-0.010031
-0.00987782
-0.0101509
-0.0108707
-0.0120196
-0.0135438
-0.0153589
-0.0173596
-0.0194321
-0.0214663
-0.023367
-0.0250612
-0.0265019
-0.0276658
-0.0285485
-0.0291551
-0.0294798
-0.029485
-0.029267
0.00352058
0.0028325
0.00212502
0.00149675
0.000882816
0.000242345
-0.000453051
-0.00122899
-0.00210746
-0.00310564
-0.00423515
-0.0055009
-0.00689964
-0.00841843
-0.0100332
-0.0117081
-0.0133958
-0.0150387
-0.0165722
-0.0179286
-0.0190422
-0.0198553
-0.020324
-0.0204231
-0.0201507
-0.019536
-0.0186327
-0.0175201
-0.0162993
-0.0150864
-0.0140038
-0.013169
-0.0126837
-0.0126225
-0.0130245
-0.0138887
-0.0151729
-0.0167993
-0.0186632
-0.0206465
-0.0226314
-0.0245133
-0.0262105
-0.0276687
-0.0288608
-0.0297812
-0.0304356
-0.0308219
-0.0309108
-0.0307839
0.00433772
0.00347065
0.00262337
0.00191915
0.00125424
0.000563876
-0.000195174
-0.00105997
-0.00206166
-0.00322484
-0.00456693
-0.00609696
-0.00781359
-0.00970305
-0.0117375
-0.013874
-0.0160551
-0.018211
-0.0202623
-0.0221256
-0.0237188
-0.0249676
-0.0258124
-0.0262128
-0.0261536
-0.0256532
-0.0247582
-0.0235445
-0.0221147
-0.0205919
-0.0191118
-0.0178111
-0.0168156
-0.0162273
-0.0161141
-0.016501
-0.0173679
-0.0186519
-0.0202553
-0.022059
-0.0239373
-0.0257736
-0.0274723
-0.0289661
-0.0302169
-0.031212
-0.0319528
-0.0324374
-0.0326442
-0.032636
0.00497479
0.0039264
0.00293677
0.00215005
0.00141852
0.000651073
-0.000211618
-0.00121873
-0.00241096
-0.00382045
-0.0054704
-0.00737348
-0.0095293
-0.0119219
-0.0145177
-0.0172648
-0.0200933
-0.0229184
-0.0256436
-0.0281668
-0.0303865
-0.0322085
-0.0335535
-0.0343621
-0.0346006
-0.0342714
-0.0334093
-0.0320825
-0.0303912
-0.0284638
-0.026449
-0.0245051
-0.0227873
-0.0214338
-0.0205516
-0.0202056
-0.0204111
-0.0211326
-0.0222897
-0.0237687
-0.0254384
-0.0271684
-0.028844
-0.0303773
-0.0317111
-0.0328164
-0.0336833
-0.0343044
-0.0346614
-0.0347947
0.00531726
0.004091
0.00296036
0.00208507
0.00126924
0.000393463
-0.000618694
-0.00182913
-0.00328846
-0.00503656
-0.00710228
-0.00950137
-0.0122334
-0.0152789
-0.0185968
-0.0221238
-0.0257758
-0.0294502
-0.033031
-0.0363944
-0.039416
-0.041978
-0.043977
-0.0453303
-0.0459808
-0.0459087
-0.045132
-0.0437049
-0.0417206
-0.0393085
-0.0366277
-0.033858
-0.0311876
-0.0287974
-0.0268454
-0.0254508
-0.0246813
-0.0245467
-0.0249991
-0.0259417
-0.027244
-0.0287621
-0.0303573
-0.0319126
-0.0333412
-0.0345869
-0.035618
-0.0364134
-0.0369515
-0.0372461
0.00524517
0.00384969
0.00258215
0.00161155
0.000690813
-0.000328955
-0.00154202
-0.00302353
-0.00483442
-0.00702248
-0.00962207
-0.0126515
-0.0161093
-0.0199708
-0.0241859
-0.0286781
-0.0333462
-0.0380678
-0.0427042
-0.0471068
-0.0511248
-0.0546129
-0.05744
-0.0594958
-0.060696
-0.0609934
-0.0603842
-0.0589017
-0.0566263
-0.0536818
-0.0502324
-0.0464754
-0.0426306
-0.0389256
-0.0355776
-0.0327746
-0.0306559
-0.0292984
-0.0287087
-0.0288252
-0.029531
-0.0306729
-0.0320858
-0.0336146
-0.0351302
-0.0365357
-0.0377643
-0.03877
-0.0395196
-0.0399948
0.00463786
0.00308648
0.00168818
0.000614092
-0.0004354
-0.00163895
-0.00310907
-0.00493462
-0.00718718
-0.0099227
-0.0131808
-0.0169818
-0.021322
-0.0261702
-0.0314649
-0.0371144
-0.042998
-0.0489702
-0.0548666
-0.0605105
-0.0657215
-0.0703239
-0.074156
-0.0770776
-0.0789748
-0.0797706
-0.0794358
-0.0779769
-0.075455
-0.0719808
-0.0677146
-0.0628623
-0.0576684
-0.0524034
-0.0473467
-0.0427647
-0.0388867
-0.0358809
-0.0338363
-0.0327542
-0.0325521
-0.0330808
-0.0341509
-0.0355619
-0.0371283
-0.0386962
-0.0401468
-0.0413952
-0.0423866
-0.0430637
0.0033799
0.00169017
0.000168728
-0.0010187
-0.0022237
-0.00365403
-0.00544048
-0.00768589
-0.0104728
-0.0138654
-0.0179083
-0.0226229
-0.028002
-0.0340059
-0.0405597
-0.0475532
-0.0548431
-0.0622577
-0.0696032
-0.076672
-0.0832518
-0.0891348
-0.0941281
-0.0980616
-0.100793
-0.102216
-0.102274
-0.100945
-0.0982665
-0.0943265
-0.0892707
-0.0833005
-0.0766709
-0.0696833
-0.0626717
-0.055982
-0.0499443
-0.0448408
-0.0408745
-0.0381448
-0.0366375
-0.0362318
-0.0367253
-0.0378703
-0.0394124
-0.0411209
-0.0428053
-0.044324
-0.0455878
-0.0464913
0.00136786
-0.000438938
-0.00207469
-0.00338674
-0.004776
-0.00647772
-0.00864061
-0.0113815
-0.0147941
-0.0189505
-0.0238999
-0.0296635
-0.0362287
-0.0435449
-0.0515205
-0.0600236
-0.0688843
-0.0779008
-0.0868469
-0.0954817
-0.10356
-0.110842
-0.117106
-0.122156
-0.125824
-0.127978
-0.128542
-0.127464
-0.124752
-0.12047
-0.114736
-0.107731
-0.0997021
-0.0909588
-0.0818708
-0.0728505
-0.0643272
-0.0567104
-0.0503454
-0.0454705
-0.0421844
-0.040435
-0.0400337
-0.0406944
-0.0420856
-0.0438802
-0.0457922
-0.0476016
-0.0491688
-0.0503274
-0.00148285
-0.00338216
-0.00512219
-0.00657085
-0.0081737
-0.0101909
-0.0127884
-0.0160966
-0.0202201
-0.0252385
-0.0312043
-0.0381368
-0.0460156
-0.0547758
-0.0643054
-0.0744461
-0.0849973
-0.0957232
-0.106362
-0.116639
-0.126276
-0.135007
-0.142584
-0.148791
-0.153443
-0.15639
-0.157541
-0.156826
-0.154222
-0.149764
-0.143537
-0.135687
-0.126429
-0.116056
-0.104941
-0.0935361
-0.0823487
-0.0719112
-0.0627279
-0.0552127
-0.0496299
-0.0460515
-0.0443497
-0.0442264
-0.0452763
-0.04706
-0.0491694
-0.0512796
-0.0531811
-0.0546273
-0.00523149
-0.00719594
-0.00902884
-0.0106257
-0.0124702
-0.0148441
-0.017929
-0.0218685
-0.026777
-0.0327407
-0.0398138
-0.0480111
-0.0573009
-0.0676001
-0.0787715
-0.0906258
-0.102927
-0.115402
-0.127753
-0.139669
-0.150846
-0.160991
-0.169843
-0.177173
-0.18279
-0.186535
-0.188308
-0.188035
-0.185669
-0.181217
-0.174727
-0.166301
-0.156104
-0.144383
-0.131482
-0.117846
-0.104024
-0.0906439
-0.0783614
-0.0677882
-0.0594024
-0.0534677
-0.049984
-0.0486927
-0.0491372
-0.05076
-0.0530051
-0.0554121
-0.0576767
-0.059446
-0.00990668
-0.0119065
-0.0138192
-0.0155742
-0.0176851
-0.0204511
-0.0240678
-0.0286904
-0.034442
-0.0414138
-0.0496589
-0.0591845
-0.069944
-0.0818308
-0.0946778
-0.10826
-0.122302
-0.136491
-0.150492
-0.163965
-0.176578
-0.188025
-0.198037
-0.206384
-0.212878
-0.217364
-0.219742
-0.219945
-0.217913
-0.213631
-0.207113
-0.198416
-0.187644
-0.174977
-0.160693
-0.145188
-0.128998
-0.112793
-0.0973465
-0.0834591
-0.071854
-0.0630509
-0.0572613
-0.0543439
-0.0538415
-0.0550916
-0.0573715
-0.0600521
-0.0627037
-0.0648338
-0.0155026
-0.0175062
-0.0194832
-0.0214031
-0.0237997
-0.026985
-0.0311661
-0.0365079
-0.0431405
-0.0511571
-0.0606074
-0.071487
-0.0837294
-0.0972005
-0.111698
-0.126957
-0.142661
-0.158458
-0.173976
-0.188848
-0.202726
-0.215298
-0.226294
-0.235493
-0.242723
-0.247842
-0.250756
-0.251422
-0.24977
-0.245778
-0.239436
-0.230756
-0.219786
-0.206627
-0.191469
-0.174618
-0.156541
-0.137883
-0.119469
-0.102247
-0.0871806
-0.0750899
-0.066483
-0.061436
-0.059575
-0.0601743
-0.0623416
-0.0652475
-0.0683014
-0.0708293
-0.0219771
-0.0239516
-0.0259751
-0.028062
-0.030756
-0.034377
-0.0391407
-0.0452191
-0.0527466
-0.0618159
-0.0724692
-0.0846869
-0.0983785
-0.113378
-0.129443
-0.146269
-0.163495
-0.180731
-0.197575
-0.213638
-0.228564
-0.24204
-0.253808
-0.263664
-0.271457
-0.277068
-0.280416
-0.281485
-0.280213
-0.276576
-0.27055
-0.262118
-0.251279
-0.238062
-0.222559
-0.204964
-0.185625
-0.165099
-0.144176
-0.123875
-0.105351
-0.0897278
-0.0778771
-0.0702008
-0.0665216
-0.0661294
-0.0679851
-0.0710372
-0.0744957
-0.0774555
-0.0292526
-0.0311642
-0.0332134
-0.0354636
-0.0384578
-0.0425184
-0.0478664
-0.0546779
-0.0630886
-0.0731873
-0.0850055
-0.0985045
-0.113566
-0.129988
-0.14749
-0.165721
-0.184283
-0.202748
-0.220691
-0.23771
-0.253445
-0.267593
-0.279912
-0.290223
-0.2984
-0.304352
-0.308016
-0.309403
-0.308469
-0.305195
-0.299556
-0.291522
-0.281056
-0.268132
-0.252753
-0.234998
-0.215074
-0.19339
-0.170624
-0.147762
-0.12606
-0.106903
-0.0915445
-0.0808068
-0.0748406
-0.0730681
-0.0743622
-0.0774463
-0.0812947
-0.0847137
-0.0372183
-0.0390332
-0.0410844
-0.0434872
-0.0467739
-0.0512643
-0.0571808
-0.0647004
-0.0739565
-0.0850311
-0.0979416
-0.112627
-0.128939
-0.14664
-0.165406
-0.184848
-0.204528
-0.223993
-0.242798
-0.260532
-0.276843
-0.291442
-0.304109
-0.31469
-0.323088
-0.329238
-0.333105
-0.334714
-0.33405
-0.331105
-0.325862
-0.31829
-0.308337
-0.29594
-0.28104
-0.263613
-0.243725
-0.221612
-0.197776
-0.17307
-0.148736
-0.126315
-0.107411
-0.0933169
-0.0846384
-0.0810756
-0.081514
-0.084479
-0.0886823
-0.0925784
-0.0457355
-0.0474208
-0.049447
-0.0519845
-0.0555452
-0.0604412
-0.0668928
-0.075074
-0.085113
-0.0970819
-0.110981
-0.126727
-0.144139
-0.162943
-0.182777
-0.203216
-0.22379
-0.244022
-0.263458
-0.281687
-0.298367
-0.313226
-0.32607
-0.336769
-0.345253
-0.351486
-0.355453
-0.357197
-0.356727
-0.35405
-0.349165
-0.342049
-0.332653
-0.320899
-0.306693
-0.289936
-0.270577
-0.248683
-0.224545
-0.198811
-0.172584
-0.147429
-0.1252
-0.107651
-0.0959369
-0.0901909
-0.0894517
-0.0921118
-0.0966119
-0.100991
-0.054644
-0.0561681
-0.0581402
-0.0607869
-0.0645918
-0.0698551
-0.0767912
-0.085568
-0.0963051
-0.109062
-0.123823
-0.140477
-0.158815
-0.17853
-0.199225
-0.220443
-0.24169
-0.262475
-0.282336
-0.30087
-0.317747
-0.332717
-0.345607
-0.356313
-0.364787
-0.371015
-0.375005
-0.376809
-0.376462
-0.373983
-0.369391
-0.362678
-0.35381
-0.342714
-0.329285
-0.313386
-0.294883
-0.273702
-0.24993
-0.223966
-0.196679
-0.169516
-0.144433
-0.123565
-0.108646
-0.100386
-0.0981424
-0.100284
-0.105
-0.109856
-0.0637696
-0.0651039
-0.0669907
-0.0697138
-0.0737224
-0.0793014
-0.086656
-0.0959445
-0.107276
-0.120696
-0.13617
-0.153565
-0.172644
-0.19307
-0.214419
-0.236208
-0.257925
-0.279072
-0.299186
-0.317873
-0.334819
-0.349793
-0.362642
-0.373283
-0.381686
-0.387856
-0.391814
-0.393625
-0.39334
-0.390992
-0.386617
-0.380229
-0.371814
-0.361319
-0.348648
-0.333658
-0.316171
-0.296015
-0.273108
-0.247601
-0.220074
-0.191731
-0.164464
-0.140643
-0.122545
-0.111545
-0.107496
-0.108891
-0.11372
-0.119031
-0.0729329
-0.0740525
-0.0758218
-0.0785822
-0.0827442
-0.0885749
-0.0962678
-0.105969
-0.117776
-0.13172
-0.147747
-0.165706
-0.185336
-0.206276
-0.228081
-0.250249
-0.27226
-0.293609
-0.313841
-0.33257
-0.349497
-0.364408
-0.377167
-0.387706
-0.396009
-0.402093
-0.405992
-0.407772
-0.407504
-0.405228
-0.400999
-0.39485
-0.38679
-0.376796
-0.364797
-0.350665
-0.334215
-0.315225
-0.293491
-0.268954
-0.241896
-0.213198
-0.184535
-0.158328
-0.137278
-0.123453
-0.117355
-0.117773
-0.122597
-0.128329
-0.0819577
-0.0828422
-0.0844622
-0.0872152
-0.0914715
-0.0974791
-0.105418
-0.115422
-0.127574
-0.14189
-0.158305
-0.176647
-0.196641
-0.217906
-0.239985
-0.262364
-0.284519
-0.305945
-0.326193
-0.344889
-0.361746
-0.376561
-0.389212
-0.399641
-0.40784
-0.413833
-0.417662
-0.419394
-0.419111
-0.416862
-0.412714
-0.406721
-0.398917
-0.389308
-0.377856
-0.364467
-0.348977
-0.331151
-0.31072
-0.28747
-0.26142
-0.233099
-0.203848
-0.175957
-0.15237
-0.135794
-0.127486
-0.126716
-0.131406
-0.137512
-0.0906784
-0.0913133
-0.0927535
-0.0954505
-0.0997345
-0.105835
-0.113918
-0.124104
-0.136461
-0.150995
-0.167627
-0.186175
-0.20635
-0.227766
-0.249954
-0.272399
-0.294575
-0.315983
-0.336179
-0.354798
-0.371561
-0.386275
-0.398825
-0.409157
-0.417266
-0.42318
-0.426943
-0.428621
-0.428306
-0.426049
-0.42193
-0.416021
-0.408378
-0.399037
-0.387997
-0.375206
-0.360535
-0.343773
-0.324632
-0.302803
-0.278104
-0.250733
-0.221637
-0.192813
-0.167247
-0.148152
-0.137575
-0.135443
-0.139867
-0.146294
-0.0989477
-0.0993244
-0.100557
-0.103147
-0.107387
-0.113488
-0.121605
-0.131843
-0.144261
-0.158853
-0.175533
-0.194113
-0.2143
-0.235704
-0.257857
-0.280244
-0.302345
-0.323664
-0.343764
-0.362286
-0.378955
-0.393583
-0.406055
-0.416317
-0.424364
-0.430221
-0.433935
-0.435563
-0.435208
-0.432921
-0.42879
-0.422903
-0.415338
-0.406157
-0.395398
-0.38305
-0.369032
-0.353174
-0.335206
-0.314784
-0.29159
-0.265552
-0.237219
-0.208185
-0.181279
-0.16003
-0.147238
-0.143617
-0.147651
-0.15434
-0.106642
-0.106759
-0.10776
-0.110191
-0.114309
-0.120312
-0.128344
-0.138501
-0.150829
-0.165319
-0.181881
-0.200325
-0.220364
-0.241609
-0.263598
-0.285825
-0.307773
-0.328953
-0.348933
-0.367356
-0.383947
-0.398517
-0.410945
-0.421175
-0.429195
-0.435027
-0.438712
-0.440304
-0.43991
-0.437579
-0.433407
-0.427494
-0.419936
-0.410821
-0.400222
-0.388167
-0.374629
-0.359488
-0.342516
-0.323377
-0.301685
-0.277173
-0.250034
-0.221414
-0.193817
-0.170874
-0.156024
-0.150844
-0.154377
-0.161269
-0.113664
-0.113529
-0.11428
-0.116498
-0.120414
-0.126216
-0.134039
-0.143972
-0.156058
-0.170284
-0.186563
-0.204712
-0.224451
-0.245402
-0.267115
-0.289093
-0.310827
-0.331834
-0.351684
-0.370017
-0.386557
-0.401103
-0.413531
-0.423772
-0.431807
-0.437648
-0.441333
-0.442909
-0.442481
-0.4401
-0.435867
-0.429891
-0.422283
-0.413156
-0.402609
-0.390713
-0.377488
-0.362869
-0.346685
-0.328636
-0.308322
-0.285359
-0.259658
-0.231927
-0.204232
-0.180098
-0.163431
-0.15668
-0.159619
-0.166661
-0.119946
-0.119573
-0.120063
-0.122021
-0.125652
-0.131141
-0.138625
-0.148189
-0.159877
-0.173679
-0.189516
-0.207217
-0.226516
-0.247052
-0.26839
-0.290045
-0.311518
-0.33233
-0.352049
-0.370312
-0.38683
-0.401395
-0.413866
-0.424164
-0.432254
-0.438141
-0.441852
-0.443431
-0.442973
-0.440544
-0.436238
-0.430172
-0.422472
-0.413266
-0.402682
-0.390826
-0.37776
-0.363476
-0.34786
-0.330669
-0.311527
-0.289998
-0.265799
-0.239254
-0.211944
-0.187109
-0.168917
-0.160636
-0.162907
-0.170055
-0.12545
-0.124861
-0.125085
-0.126738
-0.130002
-0.135064
-0.142069
-0.15111
-0.162239
-0.175455
-0.190692
-0.207797
-0.226525
-0.246533
-0.267406
-0.288672
-0.309843
-0.330442
-0.350035
-0.368248
-0.384782
-0.39941
-0.411976
-0.422381
-0.430579
-0.436557
-0.440335
-0.44195
-0.441481
-0.439005
-0.434613
-0.428429
-0.420591
-0.411249
-0.400551
-0.388631
-0.375589
-0.361463
-0.3462
-0.329617
-0.311387
-0.291075
-0.268284
-0.243037
-0.216441
-0.191327
-0.171917
-0.16218
-0.163728
-0.170949
-0.130166
-0.129391
-0.129354
-0.130662
-0.133477
-0.137994
-0.144375
-0.152733
-0.163135
-0.1756
-0.190081
-0.206449
-0.224479
-0.243856
-0.264182
-0.285002
-0.305837
-0.326211
-0.345685
-0.363873
-0.380458
-0.395194
-0.407902
-0.418466
-0.426819
-0.432933
-0.436815
-0.438496
-0.438041
-0.435535
-0.431064
-0.424758
-0.416764
-0.407239
-0.396352
-0.384265
-0.371115
-0.356984
-0.341866
-0.325636
-0.308028
-0.28864
-0.267032
-0.243019
-0.217291
-0.192203
-0.17185
-0.160743
-0.161524
-0.168799
-0.134113
-0.133188
-0.132903
-0.13383
-0.136116
-0.139967
-0.145573
-0.153079
-0.162583
-0.174131
-0.187703
-0.203196
-0.220414
-0.239065
-0.258773
-0.279098
-0.29957
-0.319713
-0.339078
-0.357265
-0.373937
-0.388824
-0.401725
-0.412498
-0.421055
-0.427352
-0.431381
-0.433163
-0.432749
-0.430233
-0.42569
-0.419257
-0.411086
-0.401348
-0.390224
-0.377895
-0.364519
-0.350216
-0.335029
-0.318895
-0.3016
-0.282792
-0.262036
-0.23903
-0.214132
-0.189221
-0.168119
-0.155712
-0.155679
-0.163001
-0.137333
-0.136303
-0.135788
-0.136305
-0.137981
-0.14104
-0.145713
-0.152192
-0.160621
-0.171084
-0.183596
-0.198086
-0.214384
-0.232226
-0.251255
-0.271046
-0.291135
-0.311042
-0.330311
-0.348523
-0.365317
-0.3804
-0.393542
-0.404576
-0.41339
-0.41992
-0.424143
-0.426066
-0.42573
-0.423227
-0.418631
-0.412075
-0.403718
-0.393738
-0.382327
-0.36968
-0.355977
-0.34136
-0.325902
-0.309586
-0.292269
-0.273655
-0.253336
-0.230962
-0.206664
-0.181892
-0.160111
-0.146417
-0.145504
-0.152876
-0.139891
-0.138806
-0.138087
-0.138166
-0.13915
-0.141286
-0.144859
-0.150129
-0.1573
-0.16651
-0.177817
-0.191183
-0.206468
-0.22343
-0.241732
-0.260961
-0.280654
-0.30033
-0.319519
-0.337782
-0.354736
-0.370057
-0.383489
-0.394836
-0.403961
-0.410778
-0.415245
-0.417358
-0.417143
-0.414686
-0.410062
-0.403398
-0.394855
-0.384615
-0.372875
-0.35984
-0.345703
-0.330622
-0.314696
-0.297932
-0.280232
-0.261371
-0.240996
-0.218748
-0.19463
-0.169745
-0.14718
-0.13211
-0.130207
-0.13763
-0.14187
-0.140787
-0.139895
-0.139508
-0.13971
-0.140781
-0.14308
-0.146952
-0.152682
-0.160475
-0.17044
-0.182574
-0.196768
-0.212798
-0.230342
-0.248993
-0.268291
-0.287748
-0.306877
-0.325222
-0.342372
-0.357976
-0.371746
-0.383459
-0.39295
-0.400111
-0.404878
-0.407233
-0.407192
-0.404821
-0.400206
-0.393459
-0.38474
-0.374231
-0.362128
-0.34864
-0.333961
-0.318261
-0.30165
-0.284156
-0.265701
-0.246103
-0.225086
-0.202333
-0.177781
-0.152299
-0.128625
-0.111935
-0.108851
-0.116306
-0.143369
-0.142355
-0.141323
-0.140431
-0.139749
-0.139602
-0.140442
-0.142722
-0.14683
-0.153052
-0.161552
-0.172368
-0.185414
-0.200482
-0.217256
-0.235335
-0.254253
-0.273513
-0.292612
-0.311073
-0.328458
-0.344389
-0.358546
-0.370677
-0.380591
-0.388154
-0.393281
-0.395938
-0.396127
-0.393896
-0.389334
-0.382539
-0.373664
-0.362884
-0.350392
-0.336387
-0.321061
-0.304576
-0.287044
-0.2685
-0.24888
-0.228016
-0.20568
-0.181642
-0.155846
-0.129029
-0.103653
-0.0848744
-0.0802941
-0.0877015
-0.144509
-0.14364
-0.142497
-0.141044
-0.139349
-0.13781
-0.136995
-0.13749
-0.139806
-0.14432
-0.151257
-0.160695
-0.172565
-0.186667
-0.202688
-0.220221
-0.238793
-0.257892
-0.277
-0.295617
-0.313281
-0.329582
-0.344175
-0.356778
-0.367171
-0.375195
-0.380745
-0.383767
-0.384249
-0.38222
-0.377763
-0.370964
-0.361961
-0.350919
-0.338015
-0.323432
-0.307344
-0.289898
-0.271188
-0.251237
-0.229977
-0.207246
-0.182824
-0.156553
-0.128486
-0.0993164
-0.0713241
-0.0496787
-0.0430872
-0.0502472
-0.145443
-0.144802
-0.143562
-0.141454
-0.13858
-0.135446
-0.132769
-0.131294
-0.131667
-0.134364
-0.139677
-0.147712
-0.158414
-0.171582
-0.186895
-0.203934
-0.222213
-0.241204
-0.260372
-0.279192
-0.29718
-0.313899
-0.328976
-0.342101
-0.353027
-0.361572
-0.367609
-0.371061
-0.371902
-0.370143
-0.365846
-0.359094
-0.349998
-0.338705
-0.325368
-0.310144
-0.293176
-0.274576
-0.254404
-0.232647
-0.209208
-0.183904
-0.156515
-0.126896
-0.0952548
-0.0624026
-0.0304989
-0.00477795
0.00466689
-0.00180999
-0.146376
-0.14605
-0.144695
-0.141773
-0.137494
-0.132525
-0.127771
-0.124154
-0.122467
-0.123285
-0.126957
-0.133613
-0.143198
-0.155502
-0.170184
-0.186809
-0.204871
-0.223823
-0.24311
-0.262189
-0.280549
-0.297733
-0.313339
-0.327034
-0.338545
-0.347665
-0.354247
-0.358193
-0.359458
-0.358035
-0.35396
-0.347303
-0.33815
-0.326617
-0.312826
-0.296893
-0.278915
-0.258951
-0.237003
-0.212996
-0.186768
-0.158083
-0.126685
-0.0924368
-0.0556207
-0.0173489
0.0201779
0.0517183
0.065396
0.0605056
-0.147628
-0.147684
-0.146125
-0.142127
-0.136128
-0.129039
-0.121987
-0.116088
-0.112272
-0.111207
-0.113282
-0.118638
-0.127208
-0.138757
-0.152921
-0.169237
-0.187177
-0.206173
-0.22565
-0.245044
-0.263827
-0.281518
-0.297695
-0.311999
-0.324137
-0.333879
-0.341055
-0.345548
-0.347291
-0.34626
-0.342463
-0.335944
-0.326762
-0.314994
-0.30072
-0.284003
-0.264875
-0.243322
-0.21926
-0.192515
-0.162822
-0.129839
-0.0932292
-0.0528197
-0.00893746
0.0370176
0.0823635
0.121977
0.142003
0.140396
-0.149755
-0.150177
-0.14818
-0.142676
-0.134523
-0.124973
-0.115409
-0.107127
-0.101181
-0.0983007
-0.0988945
-0.103092
-0.110798
-0.121744
-0.135531
-0.151665
-0.169592
-0.188723
-0.208463
-0.228231
-0.247481
-0.265714
-0.28249
-0.297429
-0.31022
-0.320612
-0.328413
-0.333487
-0.335745
-0.335139
-0.331655
-0.325302
-0.316105
-0.304094
-0.289298
-0.271713
-0.25129
-0.227915
-0.201384
-0.171387
-0.1375
-0.0992159
-0.0560374
-0.00768587
0.0455196
0.10205
0.158263
0.208763
0.238286
0.242734
-0.153817
-0.154353
-0.151384
-0.143673
-0.132771
-0.120354
-0.108069
-0.0973663
-0.0893639
-0.0848171
-0.0841182
-0.0873587
-0.0943987
-0.104925
-0.118497
-0.134588
-0.152616
-0.17197
-0.19204
-0.212228
-0.231975
-0.250768
-0.268151
-0.283729
-0.297172
-0.308213
-0.31664
-0.322297
-0.325075
-0.3249
-0.321731
-0.315546
-0.306326
-0.294051
-0.278682
-0.260141
-0.238278
-0.212854
-0.183512
-0.149755
-0.110939
-0.0663103
-0.0151148
0.0431517
0.108305
0.178772
0.250352
0.316029
0.360511
0.375944
-0.161944
-0.161716
-0.15662
-0.145569
-0.131102
-0.115336
-0.10013
-0.0870241
-0.0771203
-0.0711258
-0.0693831
-0.0719135
-0.0785141
-0.0888176
-0.10234
-0.118521
-0.13675
-0.156401
-0.176844
-0.197475
-0.217722
-0.237062
-0.255027
-0.271211
-0.28527
-0.296919
-0.305934
-0.312138
-0.3154
-0.315625
-0.312742
-0.306694
-0.29742
-0.284846
-0.268853
-0.249275
-0.225849
-0.198185
-0.165741
-0.127782
-0.0833779
-0.0314317
0.029194
0.0993938
0.179309
0.267545
0.35986
0.44791
0.5166
0.553444
-0.178389
-0.17507
-0.165441
-0.149209
-0.130044
-0.110334
-0.0919959
-0.0765327
-0.0649253
-0.0577449
-0.0552335
-0.0573103
-0.0636932
-0.0739555
-0.0875688
-0.103939
-0.122436
-0.142414
-0.163238
-0.184292
-0.205
-0.224832
-0.243312
-0.260028
-0.274622
-0.286802
-0.296325
-0.303001
-0.30668
-0.307242
-0.30459
-0.298631
-0.289262
-0.276349
-0.259698
-0.239036
-0.213977
-0.183968
-0.148249
-0.105813
-0.0553745
0.00461043
0.0758273
0.159808
0.257344
0.367537
0.486373
0.605982
0.707791
0.779812
-0.211311
-0.199506
-0.180343
-0.155836
-0.13037
-0.105968
-0.0842466
-0.0664604
-0.0533459
-0.0452537
-0.0422348
-0.0440823
-0.050426
-0.0607769
-0.0745647
-0.0911681
-0.109939
-0.130225
-0.151381
-0.172791
-0.193875
-0.214103
-0.232995
-0.250134
-0.265156
-0.277759
-0.287692
-0.294748
-0.298763
-0.299594
-0.297119
-0.291209
-0.281718
-0.268456
-0.251152
-0.229432
-0.202779
-0.170473
-0.131535
-0.0846596
-0.028166
0.0400269
0.122344
0.221327
0.339081
0.476183
0.62976
0.791349
0.93061
1.03506
-0.280234
-0.24339
-0.20281
-0.164818
-0.131086
-0.101373
-0.0763086
-0.0565476
-0.0423584
-0.0337387
-0.0305185
-0.0323669
-0.0388287
-0.0493617
-0.0633651
-0.0802008
-0.0992128
-0.119745
-0.141155
-0.162829
-0.184189
-0.204707
-0.223904
-0.24136
-0.25671
-0.269644
-0.279902
-0.287269
-0.291563
-0.292626
-0.290307
-0.28445
-0.274868
-0.261317
-0.243461
-0.220837
-0.192817
-0.158531
-0.116801
-0.0660537
-0.00423252
0.0712964
0.16381
0.277227
0.415915
0.584108
0.784021
1.00987
1.21712
1.36924
-0.45797
-0.313077
-0.218508
-0.164582
-0.124183
-0.0903115
-0.0635305
-0.0435009
-0.0295091
-0.021237
-0.0184461
-0.0207453
-0.0276309
-0.038545
-0.0528888
-0.0700314
-0.0893257
-0.110125
-0.131797
-0.153736
-0.175371
-0.196178
-0.215682
-0.233461
-0.249148
-0.262429
-0.273037
-0.280748
-0.285367
-0.286721
-0.284642
-0.27895
-0.269424
-0.255786
-0.237656
-0.214517
-0.185662
-0.150124
-0.106596
-0.053328
0.011995
0.0924161
0.191923
0.315769
0.470983
0.667273
0.918055
1.23957
1.62915
2.07736
-0.91304
-0.400295
-0.19438
-0.145731
-0.108139
-0.0713064
-0.0445456
-0.0263741
-0.0140683
-0.00705211
-0.00528039
-0.00842447
-0.0159931
-0.027461
-0.0422687
-0.0598166
-0.0794809
-0.100633
-0.122656
-0.144954
-0.166963
-0.188162
-0.208078
-0.226288
-0.242422
-0.256161
-0.267233
-0.275404
-0.280472
-0.282255
-0.280573
-0.275233
-0.266005
-0.252595
-0.234605
-0.211496
-0.182534
-0.146722
-0.102715
-0.0487108
0.017688
0.0996768
0.201558
0.329292
0.491586
0.702364
0.98668
1.39866
2.06762
3.2198
)
;

boundaryField
{
    movingWall
    {
        type            zeroGradient;
    }
    fixedWalls
    {
        type            zeroGradient;
    }
    frontAndBack
    {
        type            empty;
    }
}


// ************************************************************************* //
