/*--------------------------------*- C++ -*----------------------------------*\
  =========                 |
  \\      /  F ield         | OpenFOAM: The Open Source CFD Toolbox
   \\    /   O peration     | Website:  https://openfoam.org
    \\  /    A nd           | Version:  7
     \\/     M anipulation  |
\*---------------------------------------------------------------------------*/
FoamFile
{
    version     2.0;
    format      ascii;
    class       volVectorField;
    location    "200";
    object      U;
}
// * * * * * * * * * * * * * * * * * * * * * * * * * * * * * * * * * * * * * //

dimensions      [0 1 -1 0 0 0 0];

internalField   nonuniform List<vector> 
2500
(
(0.000110141 -0.000111061 0)
(0.000487916 -0.000150722 0)
(0.000831834 -0.000126098 0)
(0.000996069 -7.88898e-05 0)
(0.000904967 -3.10112e-05 0)
(0.000553768 1.17079e-05 0)
(-3.99753e-05 4.83555e-05 0)
(-0.000856466 8.03106e-05 0)
(-0.00188041 0.000109737 0)
(-0.00310237 0.000138611 0)
(-0.00451717 0.000168276 0)
(-0.006121 0.000199324 0)
(-0.00790816 0.000231631 0)
(-0.00986799 0.000264445 0)
(-0.0119823 0.000296478 0)
(-0.0142234 0.000325992 0)
(-0.0165529 0.000350881 0)
(-0.0189208 0.000368764 0)
(-0.0212658 0.000377108 0)
(-0.0235164 0.000373388 0)
(-0.0255923 0.000355293 0)
(-0.0274079 0.000320971 0)
(-0.028876 0.000269298 0)
(-0.0299122 0.000200148 0)
(-0.0304409 0.000114661 0)
(-0.0304008 1.53843e-05 0)
(-0.0297505 -9.37844e-05 0)
(-0.0284737 -0.000207537 0)
(-0.0265829 -0.000319519 0)
(-0.0241218 -0.000422749 0)
(-0.0211653 -0.000510177 0)
(-0.0178175 -0.000575368 0)
(-0.0142063 -0.000613185 0)
(-0.010477 -0.000620419 0)
(-0.0067827 -0.000596218 0)
(-0.00327481 -0.000542242 0)
(-9.2402e-05 -0.000462474 0)
(0.00264684 -0.000362973 0)
(0.00485371 -0.000251245 0)
(0.00647181 -0.000135014 0)
(0.00747926 -2.13633e-05 0)
(0.00788737 8.37307e-05 0)
(0.00773709 0.000175729 0)
(0.0070948 0.000251325 0)
(0.00604936 0.000307527 0)
(0.00471246 0.000340163 0)
(0.00322454 0.000342064 0)
(0.00177306 0.00030043 0)
(0.000624585 0.000191809 0)
(2.97301e-05 2.97085e-05 0)
(0.000155357 -0.000494824 0)
(0.00068808 -0.000690322 0)
(0.000978553 -0.000437177 0)
(0.000776418 1.17402e-05 0)
(-5.3343e-05 0.000516003 0)
(-0.00153202 0.00101018 0)
(-0.00363665 0.00147231 0)
(-0.00633405 0.00190262 0)
(-0.00959411 0.00230968 0)
(-0.0133929 0.00270216 0)
(-0.0177098 0.00308457 0)
(-0.0225214 0.00345554 0)
(-0.0277946 0.00380773 0)
(-0.0334805 0.00412844 0)
(-0.0395092 0.00440069 0)
(-0.045786 0.00460439 0)
(-0.0521899 0.00471772 0)
(-0.0585735 0.00471859 0)
(-0.0647658 0.00458625 0)
(-0.0705761 0.00430308 0)
(-0.0758011 0.00385646 0)
(-0.0802328 0.00324064 0)
(-0.0836691 0.00245839 0)
(-0.0859244 0.00152242 0)
(-0.086842 0.000456208 0)
(-0.086305 -0.000705942 0)
(-0.0842473 -0.00191998 0)
(-0.080661 -0.00313358 0)
(-0.0756022 -0.00428918 0)
(-0.0691931 -0.00532736 0)
(-0.0616198 -0.00619108 0)
(-0.0531271 -0.00683014 0)
(-0.0440074 -0.00720556 0)
(-0.0345875 -0.0072934 0)
(-0.0252113 -0.00708744 0)
(-0.0162203 -0.00660035 0)
(-0.00793444 -0.00586297 0)
(-0.000633082 -0.00492196 0)
(0.0054608 -0.0038359 0)
(0.0101924 -0.0026697 0)
(0.0134815 -0.00148869 0)
(0.0153241 -0.000354308 0)
(0.0157893 0.000678677 0)
(0.0150134 0.00156235 0)
(0.0131955 0.00225115 0)
(0.0105954 0.00269449 0)
(0.00753764 0.00282692 0)
(0.00443129 0.00256121 0)
(0.00181713 0.00180907 0)
(0.000193412 0.000626587 0)
(0.0001299 -0.000840959 0)
(0.000377605 -0.000971676 0)
(6.48208e-05 -0.000206488 0)
(-0.00105569 0.000961258 0)
(-0.00311019 0.0022562 0)
(-0.00611923 0.00354293 0)
(-0.0100591 0.00477028 0)
(-0.0148932 0.00593195 0)
(-0.0205847 0.00703897 0)
(-0.0270981 0.00810231 0)
(-0.0343944 0.00912352 0)
(-0.0424229 0.0100909 0)
(-0.0511129 0.0109792 0)
(-0.0603658 0.0117512 0)
(-0.0700498 0.0123609 0)
(-0.0799964 0.0127566 0)
(-0.0900011 0.0128847 0)
(-0.0998258 0.0126942 0)
(-0.109205 0.0121402 0)
(-0.117853 0.0111889 0)
(-0.12548 0.00982128 0)
(-0.131796 0.00803699 0)
(-0.136535 0.00585701 0)
(-0.13946 0.00332561 0)
(-0.140385 0.000510881 0)
(-0.139181 -0.00249641 0)
(-0.135789 -0.00558608 0)
(-0.130228 -0.0086334 0)
(-0.122598 -0.0115053 0)
(-0.11308 -0.0140678 0)
(-0.101933 -0.0161943 0)
(-0.0894873 -0.0177743 0)
(-0.0761321 -0.0187223 0)
(-0.0622998 -0.0189849 0)
(-0.048447 -0.0185466 0)
(-0.0350324 -0.017432 0)
(-0.0224937 -0.0157059 0)
(-0.0112241 -0.0134687 0)
(-0.00155103 -0.0108492 0)
(0.00628089 -0.00799474 0)
(0.0121228 -0.00506009 0)
(0.0159284 -0.00219671 0)
(0.0177553 0.000453649 0)
(0.0177607 0.00276108 0)
(0.0161974 0.00460204 0)
(0.0134091 0.00584806 0)
(0.00982791 0.00635154 0)
(0.00598769 0.0059375 0)
(0.00258965 0.00442986 0)
(0.000303611 0.00178621 0)
(6.76576e-05 -0.000952558 0)
(-0.000258542 -0.000618295 0)
(-0.0015662 0.00100499 0)
(-0.0040299 0.00320464 0)
(-0.00770971 0.00558576 0)
(-0.0126005 0.00795231 0)
(-0.0186692 0.0102279 0)
(-0.0258751 0.0123995 0)
(-0.0341758 0.0144763 0)
(-0.0435248 0.0164649 0)
(-0.0538621 0.0183542 0)
(-0.0651053 0.0201112 0)
(-0.0771394 0.0216806 0)
(-0.08981 0.0229888 0)
(-0.10292 0.0239493 0)
(-0.116226 0.02447 0)
(-0.129448 0.0244595 0)
(-0.142268 0.0238353 0)
(-0.154347 0.0225308 0)
(-0.165332 0.0205023 0)
(-0.174877 0.0177345 0)
(-0.182649 0.0142458 0)
(-0.188353 0.0100911 0)
(-0.191735 0.00536259 0)
(-0.192605 0.000189388 0)
(-0.190842 -0.00526571 0)
(-0.186402 -0.0108124 0)
(-0.179325 -0.0162415 0)
(-0.169737 -0.0213339 0)
(-0.157849 -0.0258713 0)
(-0.143958 -0.0296486 0)
(-0.128435 -0.0324863 0)
(-0.111721 -0.0342435 0)
(-0.0943072 -0.0348292 0)
(-0.0767183 -0.0342109 0)
(-0.0594918 -0.0324203 0)
(-0.0431515 -0.0295534 0)
(-0.0281822 -0.0257662 0)
(-0.0150036 -0.0212652 0)
(-0.00394794 -0.0162929 0)
(0.0047586 -0.0111116 0)
(0.0110084 -0.00598808 0)
(0.0148197 -0.00117876 0)
(0.0163366 0.00307409 0)
(0.0158243 0.00654017 0)
(0.0136647 0.00898736 0)
(0.0103478 0.0101653 0)
(0.00648371 0.00979315 0)
(0.00288168 0.00757246 0)
(0.000344649 0.00326018 0)
(-1.43443e-05 -0.000674433 0)
(-0.00111134 0.000682677 0)
(-0.00370202 0.00356994 0)
(-0.00783403 0.0071127 0)
(-0.0134548 0.0108369 0)
(-0.0205101 0.0145136 0)
(-0.0289461 0.0180567 0)
(-0.038713 0.0214512 0)
(-0.0497613 0.0247022 0)
(-0.0620311 0.0278032 0)
(-0.0754392 0.0307199 0)
(-0.0898676 0.0333854 0)
(-0.105154 0.0357027 0)
(-0.121088 0.0375519 0)
(-0.137408 0.0387993 0)
(-0.153806 0.0393087 0)
(-0.169934 0.038952 0)
(-0.185417 0.0376203 0)
(-0.199864 0.0352335 0)
(-0.212884 0.0317494 0)
(-0.224102 0.0271696 0)
(-0.233171 0.0215442 0)
(-0.239787 0.0149737 0)
(-0.2437 0.00760781 0)
(-0.244721 -0.000356423 0)
(-0.242736 -0.00868008 0)
(-0.237704 -0.0170913 0)
(-0.229666 -0.0252958 0)
(-0.218748 -0.0329877 0)
(-0.20516 -0.0398625 0)
(-0.189202 -0.0456324 0)
(-0.171254 -0.0500426 0)
(-0.151774 -0.0528877 0)
(-0.131287 -0.0540277 0)
(-0.110363 -0.0534014 0)
(-0.0896029 -0.051035 0)
(-0.0696055 -0.0470462 0)
(-0.050943 -0.0416402 0)
(-0.034129 -0.035099 0)
(-0.01959 -0.0277646 0)
(-0.00764095 -0.0200175 0)
(0.00153396 -0.0122538 0)
(0.00789316 -0.00486696 0)
(0.0115433 0.00176532 0)
(0.0127353 0.00728218 0)
(0.0118595 0.0113262 0)
(0.00943544 0.0135251 0)
(0.00612081 0.0134725 0)
(0.00279265 0.0107195 0)
(0.000341267 0.00478481 0)
(-0.00011072 8.67455e-05 0)
(-0.00211716 0.00314135 0)
(-0.0062009 0.00775397 0)
(-0.0122404 0.0129622 0)
(-0.0200345 0.0182691 0)
(-0.0294608 0.0234524 0)
(-0.0404347 0.0284395 0)
(-0.0528919 0.0332232 0)
(-0.0667718 0.0378029 0)
(-0.0819986 0.0421513 0)
(-0.0984634 0.0461994 0)
(-0.116011 0.0498351 0)
(-0.134433 0.0529102 0)
(-0.153464 0.0552516 0)
(-0.172789 0.0566764 0)
(-0.192045 0.0570062 0)
(-0.210838 0.0560822 0)
(-0.228757 0.0537786 0)
(-0.245382 0.0500135 0)
(-0.260309 0.0447578 0)
(-0.273157 0.0380406 0)
(-0.283579 0.0299521 0)
(-0.291276 0.0206427 0)
(-0.296001 0.0103212 0)
(-0.297562 -0.000750189 0)
(-0.295837 -0.0122615 0)
(-0.290769 -0.0238648 0)
(-0.282372 -0.0351854 0)
(-0.270744 -0.0458332 0)
(-0.256067 -0.0554165 0)
(-0.238611 -0.0635599 0)
(-0.218742 -0.0699235 0)
(-0.196912 -0.0742241 0)
(-0.173659 -0.0762562 0)
(-0.14959 -0.0759113 0)
(-0.12536 -0.0731931 0)
(-0.101646 -0.0682248 0)
(-0.0791139 -0.0612495 0)
(-0.0583828 -0.0526194 0)
(-0.0399881 -0.0427768 0)
(-0.0243501 -0.0322273 0)
(-0.0117474 -0.0215115 0)
(-0.00229912 -0.0111764 0)
(0.00404449 -0.00175685 0)
(0.0075027 0.0062311 0)
(0.00845509 0.0122852 0)
(0.0074332 0.0158918 0)
(0.00512358 0.0165019 0)
(0.00243757 0.013503 0)
(0.000311285 0.00618598 0)
(-0.000218316 0.00139655 0)
(-0.00323263 0.00690613 0)
(-0.00895549 0.0137446 0)
(-0.0170644 0.0209469 0)
(-0.0271834 0.0280613 0)
(-0.0391088 0.0349201 0)
(-0.0527176 0.0414933 0)
(-0.0679261 0.0477929 0)
(-0.0846592 0.0538129 0)
(-0.102822 0.0594979 0)
(-0.122279 0.0647344 0)
(-0.142838 0.0693559 0)
(-0.164247 0.0731562 0)
(-0.186197 0.0759075 0)
(-0.208328 0.0773794 0)
(-0.230243 0.0773584 0)
(-0.251522 0.0756646 0)
(-0.271734 0.0721663 0)
(-0.290458 0.0667907 0)
(-0.307292 0.0595308 0)
(-0.321861 0.0504487 0)
(-0.333828 0.0396756 0)
(-0.342897 0.0274097 0)
(-0.348817 0.0139116 0)
(-0.351385 -0.000500424 0)
(-0.350451 -0.0154558 0)
(-0.34592 -0.0305403 0)
(-0.337762 -0.0453059 0)
(-0.326021 -0.0592813 0)
(-0.310824 -0.0719863 0)
(-0.292392 -0.0829512 0)
(-0.271046 -0.0917383 0)
(-0.247216 -0.0979686 0)
(-0.221434 -0.101349 0)
(-0.194329 -0.1017 0)
(-0.16661 -0.0989772 0)
(-0.139032 -0.0932878 0)
(-0.112366 -0.0848957 0)
(-0.0873525 -0.0742137 0)
(-0.0646583 -0.0617827 0)
(-0.0448326 -0.0482411 0)
(-0.0282724 -0.0342874 0)
(-0.0151956 -0.0206431 0)
(-0.00562759 -0.00802337 0)
(0.000601492 0.00287901 0)
(0.00384844 0.0113922 0)
(0.00464467 0.0168429 0)
(0.00369284 0.0185263 0)
(0.00191565 0.0156654 0)
(0.000268466 0.0073553 0)
(-0.000334346 0.00330266 0)
(-0.00442148 0.0120781 0)
(-0.0118721 0.0216626 0)
(-0.02214 0.0311841 0)
(-0.0346578 0.0403131 0)
(-0.0491325 0.0489905 0)
(-0.0653982 0.0572603 0)
(-0.0833481 0.0651675 0)
(-0.10289 0.0727011 0)
(-0.123908 0.079772 0)
(-0.146238 0.0862144 0)
(-0.169655 0.0918013 0)
(-0.193872 0.0962664 0)
(-0.218544 0.0993292 0)
(-0.243286 0.100719 0)
(-0.267679 0.100196 0)
(-0.291297 0.0975695 0)
(-0.313712 0.0927133 0)
(-0.334511 0.0855709 0)
(-0.353306 0.0761615 0)
(-0.369734 0.0645796 0)
(-0.383468 0.0509931 0)
(-0.394211 0.0356389 0)
(-0.401702 0.0188183 0)
(-0.405713 0.000893449 0)
(-0.406058 -0.0177174 0)
(-0.402595 -0.0365454 0)
(-0.395233 -0.0550773 0)
(-0.383948 -0.0727656 0)
(-0.368793 -0.0890417 0)
(-0.349917 -0.103335 0)
(-0.327574 -0.115097 0)
(-0.302142 -0.123835 0)
(-0.274126 -0.12914 0)
(-0.244157 -0.130732 0)
(-0.212979 -0.128485 0)
(-0.181425 -0.122461 0)
(-0.150377 -0.112917 0)
(-0.120714 -0.100311 0)
(-0.0932599 -0.0852773 0)
(-0.0687251 -0.0685912 0)
(-0.0476569 -0.0511256 0)
(-0.0304029 -0.0337996 0)
(-0.0170887 -0.0175357 0)
(-0.00761256 -0.0032325 0)
(-0.00165344 0.00824281 0)
(0.00130941 0.0160388 0)
(0.0019875 0.019282 0)
(0.00130347 0.0170354 0)
(0.00022302 0.00823188 0)
(-0.000455706 0.00583547 0)
(-0.00564756 0.0187134 0)
(-0.0148592 0.0315654 0)
(-0.0273066 0.0437181 0)
(-0.0422223 0.0550477 0)
(-0.0592212 0.0656611 0)
(-0.078092 0.0757094 0)
(-0.0987029 0.0852844 0)
(-0.120942 0.0943717 0)
(-0.144671 0.102844 0)
(-0.169701 0.110478 0)
(-0.195777 0.116985 0)
(-0.222585 0.122039 0)
(-0.24976 0.125314 0)
(-0.2769 0.126506 0)
(-0.303587 0.125362 0)
(-0.329397 0.121689 0)
(-0.353919 0.115373 0)
(-0.376756 0.106377 0)
(-0.397535 0.0947473 0)
(-0.41591 0.0806051 0)
(-0.431559 0.0641468 0)
(-0.444183 0.0456379 0)
(-0.453508 0.0254088 0)
(-0.459284 0.00385229 0)
(-0.461287 -0.0185782 0)
(-0.45933 -0.041371 0)
(-0.453258 -0.0639596 0)
(-0.442972 -0.0857285 0)
(-0.428441 -0.106025 0)
(-0.409719 -0.124177 0)
(-0.38697 -0.139519 0)
(-0.360486 -0.151421 0)
(-0.330707 -0.159337 0)
(-0.298229 -0.162847 0)
(-0.263807 -0.161706 0)
(-0.228327 -0.155883 0)
(-0.192777 -0.145596 0)
(-0.158188 -0.131314 0)
(-0.125567 -0.113751 0)
(-0.0958221 -0.09382 0)
(-0.0696947 -0.0725838 0)
(-0.0477044 -0.0511861 0)
(-0.0301143 -0.0307913 0)
(-0.0169188 -0.0125388 0)
(-0.00785186 0.00247661 0)
(-0.00241171 0.0131988 0)
(0.000115669 0.0185744 0)
(0.000652668 0.0175062 0)
(0.000181533 0.00878917 0)
(-0.000578518 0.00900658 0)
(-0.006872 0.0268227 0)
(-0.0178226 0.0434485 0)
(-0.0324029 0.0585227 0)
(-0.0496444 0.0722147 0)
(-0.0690703 0.0848563 0)
(-0.0904239 0.0967385 0)
(-0.113547 0.108013 0)
(-0.138306 0.118665 0)
(-0.164543 0.128526 0)
(-0.192043 0.137313 0)
(-0.22053 0.144676 0)
(-0.24967 0.150238 0)
(-0.279088 0.153632 0)
(-0.308381 0.154533 0)
(-0.337137 0.152679 0)
(-0.364947 0.147888 0)
(-0.391417 0.140057 0)
(-0.416169 0.129172 0)
(-0.438848 0.1153 0)
(-0.459121 0.0985856 0)
(-0.476674 0.0792462 0)
(-0.491211 0.0575669 0)
(-0.502454 0.0338978 0)
(-0.510141 0.00865193 0)
(-0.514025 -0.0176942 0)
(-0.513883 -0.0445997 0)
(-0.509511 -0.0714603 0)
(-0.500736 -0.0976078 0)
(-0.487437 -0.122319 0)
(-0.46956 -0.144828 0)
(-0.447149 -0.164351 0)
(-0.420373 -0.180115 0)
(-0.389559 -0.19141 0)
(-0.355217 -0.197641 0)
(-0.318057 -0.198393 0)
(-0.278983 -0.19349 0)
(-0.239061 -0.183049 0)
(-0.199468 -0.167509 0)
(-0.161412 -0.147625 0)
(-0.126039 -0.124441 0)
(-0.0943361 -0.099218 0)
(-0.0670529 -0.073354 0)
(-0.0446433 -0.0482974 0)
(-0.0272406 -0.0254753 0)
(-0.0146633 -0.00625262 0)
(-0.00644409 0.00807391 0)
(-0.00186899 0.0162496 0)
(-1.04306e-05 0.0170103 0)
(0.000147223 0.00902136 0)
(-0.000698096 0.0128067 0)
(-0.00805269 0.0363693 0)
(-0.0206646 0.0572457 0)
(-0.0372661 0.0755038 0)
(-0.0566936 0.0916944 0)
(-0.0783823 0.106432 0)
(-0.10203 0.120178 0)
(-0.127452 0.133159 0)
(-0.154493 0.145359 0)
(-0.182973 0.156571 0)
(-0.212659 0.166454 0)
(-0.243255 0.174599 0)
(-0.274419 0.180582 0)
(-0.30577 0.184008 0)
(-0.336911 0.184537 0)
(-0.367441 0.181908 0)
(-0.396968 0.175948 0)
(-0.425114 0.166572 0)
(-0.451519 0.153784 0)
(-0.475847 0.137672 0)
(-0.497779 0.1184 0)
(-0.517018 0.0962031 0)
(-0.533285 0.0713814 0)
(-0.546315 0.0443 0)
(-0.555854 0.0153844 0)
(-0.561657 -0.014877 0)
(-0.563489 -0.0459299 0)
(-0.561113 -0.0771527 0)
(-0.554301 -0.107848 0)
(-0.542842 -0.137245 0)
(-0.526569 -0.164507 0)
(-0.505382 -0.188745 0)
(-0.479289 -0.209047 0)
(-0.448451 -0.224524 0)
(-0.413227 -0.234373 0)
(-0.374213 -0.237958 0)
(-0.332257 -0.234891 0)
(-0.288452 -0.225115 0)
(-0.24409 -0.20896 0)
(-0.200579 -0.187169 0)
(-0.159329 -0.160879 0)
(-0.121631 -0.131548 0)
(-0.0885354 -0.100855 0)
(-0.0607583 -0.0705803 0)
(-0.0386359 -0.0424988 0)
(-0.0221171 -0.0183055 0)
(-0.0107956 0.000412895 0)
(-0.00396495 0.012163 0)
(-0.000683252 0.0154937 0)
(0.000120459 0.00893006 0)
(-0.000809134 0.0172036 0)
(-0.00914543 0.0472683 0)
(-0.0232857 0.0728308 0)
(-0.041735 0.0945032 0)
(-0.0631464 0.113303 0)
(-0.086872 0.130179 0)
(-0.112566 0.145797 0)
(-0.140014 0.160464 0)
(-0.169041 0.174174 0)
(-0.199445 0.186677 0)
(-0.230975 0.197579 0)
(-0.263325 0.206419 0)
(-0.296144 0.212733 0)
(-0.329053 0.216102 0)
(-0.36166 0.216181 0)
(-0.393575 0.212711 0)
(-0.424419 0.205532 0)
(-0.453829 0.194578 0)
(-0.481463 0.179872 0)
(-0.507001 0.161523 0)
(-0.530153 0.139716 0)
(-0.550648 0.114707 0)
(-0.568245 0.0868138 0)
(-0.582715 0.0564141 0)
(-0.593843 0.0239414 0)
(-0.60141 -0.0101149 0)
(-0.6052 -0.0452043 0)
(-0.604972 -0.0807124 0)
(-0.600462 -0.115943 0)
(-0.591389 -0.150114 0)
(-0.577476 -0.18235 0)
(-0.558469 -0.21169 0)
(-0.534188 -0.237102 0)
(-0.504578 -0.257522 0)
(-0.469779 -0.271923 0)
(-0.430185 -0.2794 0)
(-0.386499 -0.279279 0)
(-0.339751 -0.271236 0)
(-0.291277 -0.255394 0)
(-0.242652 -0.232389 0)
(-0.195557 -0.203382 0)
(-0.151631 -0.169998 0)
(-0.1123 -0.134209 0)
(-0.0786367 -0.0981765 0)
(-0.0512655 -0.0640976 0)
(-0.0303355 -0.0340773 0)
(-0.0155457 -0.0100649 0)
(-0.00621539 0.00615012 0)
(-0.00138318 0.0128909 0)
(9.92248e-05 0.00851261 0)
(-0.00090605 0.0221416 0)
(-0.0101057 0.0593867 0)
(-0.0255889 0.09002 0)
(-0.0456548 0.115303 0)
(-0.0687912 0.136796 0)
(-0.0942729 0.155833 0)
(-0.12171 0.173305 0)
(-0.15086 0.189618 0)
(-0.181524 0.204774 0)
(-0.213481 0.218488 0)
(-0.246464 0.230315 0)
(-0.280156 0.239746 0)
(-0.314202 0.246286 0)
(-0.348221 0.249498 0)
(-0.381828 0.249032 0)
(-0.414638 0.244638 0)
(-0.446281 0.236169 0)
(-0.476406 0.22358 0)
(-0.504689 0.206918 0)
(-0.530839 0.18632 0)
(-0.554597 0.162002 0)
(-0.575745 0.134245 0)
(-0.594094 0.103393 0)
(-0.60948 0.0698384 0)
(-0.621752 0.0340198 0)
(-0.630749 -0.00358207 0)
(-0.636299 -0.0424375 0)
(-0.638191 -0.081965 0)
(-0.636155 -0.121505 0)
(-0.629871 -0.160306 0)
(-0.618968 -0.197503 0)
(-0.603051 -0.232107 0)
(-0.58174 -0.263009 0)
(-0.554736 -0.289 0)
(-0.521897 -0.308829 0)
(-0.483332 -0.321295 0)
(-0.439488 -0.325375 0)
(-0.391216 -0.320376 0)
(-0.339787 -0.306089 0)
(-0.286858 -0.28291 0)
(-0.234346 -0.251909 0)
(-0.184254 -0.214804 0)
(-0.138455 -0.17384 0)
(-0.0984749 -0.131601 0)
(-0.0653408 -0.0907835 0)
(-0.039499 -0.0540087 0)
(-0.0208237 -0.0236895 0)
(-0.00869595 -0.00199537 0)
(-0.0021422 0.00910658 0)
(7.98096e-05 0.00775287 0)
(-0.000983379 0.0275412 0)
(-0.0108913 0.0725454 0)
(-0.0274831 0.108576 0)
(-0.048883 0.137632 0)
(-0.073436 0.161878 0)
(-0.100346 0.183076 0)
(-0.129179 0.202365 0)
(-0.15966 0.220259 0)
(-0.191568 0.236775 0)
(-0.224661 0.251597 0)
(-0.258659 0.264233 0)
(-0.293233 0.274132 0)
(-0.32802 0.280771 0)
(-0.36264 0.2837 0)
(-0.396704 0.282567 0)
(-0.429832 0.277132 0)
(-0.461659 0.267266 0)
(-0.491847 0.252949 0)
(-0.520095 0.234265 0)
(-0.546147 0.211389 0)
(-0.569796 0.184578 0)
(-0.590885 0.154156 0)
(-0.609301 0.120497 0)
(-0.624965 0.0840157 0)
(-0.637809 0.0451535 0)
(-0.647756 0.004375 0)
(-0.654703 -0.0378273 0)
(-0.658501 -0.080926 0)
(-0.658907 -0.124335 0)
(-0.655595 -0.167375 0)
(-0.64814 -0.209247 0)
(-0.636035 -0.248996 0)
(-0.618722 -0.285494 0)
(-0.595651 -0.317442 0)
(-0.566368 -0.343402 0)
(-0.530627 -0.36188 0)
(-0.488514 -0.371463 0)
(-0.440564 -0.370997 0)
(-0.38784 -0.359803 0)
(-0.331944 -0.337872 0)
(-0.274936 -0.306015 0)
(-0.219154 -0.265906 0)
(-0.166947 -0.219993 0)
(-0.120397 -0.171285 0)
(-0.0810572 -0.123062 0)
(-0.0498012 -0.0785774 0)
(-0.0267797 -0.0408457 0)
(-0.0114992 -0.0125357 0)
(-0.00300043 0.00400225 0)
(5.74264e-05 0.00661519 0)
(-0.00103621 0.0333012 0)
(-0.0114644 0.0865239 0)
(-0.0288879 0.128215 0)
(-0.0512953 0.161172 0)
(-0.076915 0.188211 0)
(-0.104886 0.21155 0)
(-0.134729 0.232597 0)
(-0.166137 0.251986 0)
(-0.198861 0.269754 0)
(-0.23264 0.285557 0)
(-0.267177 0.298861 0)
(-0.302132 0.30908 0)
(-0.337134 0.315664 0)
(-0.371795 0.318152 0)
(-0.405725 0.316193 0)
(-0.438541 0.30956 0)
(-0.469887 0.298151 0)
(-0.49944 0.281981 0)
(-0.526932 0.261183 0)
(-0.55215 0.235985 0)
(-0.574952 0.206703 0)
(-0.595256 0.173713 0)
(-0.613037 0.137433 0)
(-0.628311 0.0983043 0)
(-0.641107 0.0567706 0)
(-0.651443 0.0132753 0)
(-0.659309 -0.031738 0)
(-0.664631 -0.0778141 0)
(-0.667233 -0.124467 0)
(-0.666817 -0.171133 0)
(-0.662955 -0.217125 0)
(-0.655076 -0.261592 0)
(-0.642491 -0.303464 0)
(-0.624434 -0.341428 0)
(-0.600145 -0.373928 0)
(-0.568992 -0.399226 0)
(-0.530618 -0.415515 0)
(-0.485116 -0.421126 0)
(-0.43317 -0.41478 0)
(-0.376155 -0.395876 0)
(-0.316112 -0.364752 0)
(-0.255611 -0.322833 0)
(-0.197462 -0.272622 0)
(-0.144363 -0.2175 0)
(-0.0985249 -0.161375 0)
(-0.0614001 -0.10827 0)
(-0.0335546 -0.0619637 0)
(-0.0147179 -0.0257884 0)
(-0.00399944 -0.00260674 0)
(2.69159e-05 0.00504225 0)
(-0.00106058 0.0393012 0)
(-0.0117939 0.101066 0)
(-0.0297377 0.148613 0)
(-0.0527905 0.185567 0)
(-0.0790949 0.215417 0)
(-0.107731 0.240863 0)
(-0.138173 0.263592 0)
(-0.170077 0.284368 0)
(-0.203165 0.303255 0)
(-0.237156 0.319889 0)
(-0.271735 0.333698 0)
(-0.30655 0.344061 0)
(-0.341219 0.350406 0)
(-0.375345 0.352261 0)
(-0.408534 0.349283 0)
(-0.440405 0.341264 0)
(-0.470612 0.328135 0)
(-0.498857 0.309966 0)
(-0.52491 0.286949 0)
(-0.548618 0.259385 0)
(-0.569905 0.227661 0)
(-0.588774 0.19222 0)
(-0.605292 0.153531 0)
(-0.619569 0.112065 0)
(-0.631733 0.0682717 0)
(-0.641901 0.0225693 0)
(-0.650156 -0.024654 0)
(-0.656515 -0.0730256 0)
(-0.660888 -0.122177 0)
(-0.663044 -0.171685 0)
(-0.662596 -0.221025 0)
(-0.658976 -0.269502 0)
(-0.651431 -0.316185 0)
(-0.639049 -0.359843 0)
(-0.620818 -0.398906 0)
(-0.595735 -0.431476 0)
(-0.562974 -0.455414 0)
(-0.522086 -0.468526 0)
(-0.473225 -0.468847 0)
(-0.41733 -0.455012 0)
(-0.356213 -0.426636 0)
(-0.292496 -0.384622 0)
(-0.229353 -0.331291 0)
(-0.170099 -0.270253 0)
(-0.117709 -0.206034 0)
(-0.0743753 -0.143535 0)
(-0.0412522 -0.0874944 0)
(-0.01843 -0.0421152 0)
(-0.00517656 -0.0109484 0)
(-1.65102e-05 0.00295608 0)
(-0.00105382 0.0454065 0)
(-0.0118579 0.115887 0)
(-0.0299846 0.169416 0)
(-0.0532955 0.210431 0)
(-0.0798803 0.243098 0)
(-0.108767 0.270599 0)
(-0.139379 0.294918 0)
(-0.171335 0.316954 0)
(-0.204326 0.336809 0)
(-0.238048 0.354102 0)
(-0.272169 0.368228 0)
(-0.306322 0.378535 0)
(-0.340116 0.384431 0)
(-0.373147 0.385439 0)
(-0.405018 0.381226 0)
(-0.435355 0.371613 0)
(-0.463832 0.35658 0)
(-0.490184 0.336262 0)
(-0.51423 0.310929 0)
(-0.535879 0.28097 0)
(-0.555131 0.246854 0)
(-0.57207 0.209099 0)
(-0.586847 0.16823 0)
(-0.599662 0.12475 0)
(-0.610729 0.0791164 0)
(-0.620251 0.031721 0)
(-0.628398 -0.0171039 0)
(-0.635276 -0.0670716 0)
(-0.640891 -0.117934 0)
(-0.645101 -0.169422 0)
(-0.647604 -0.221196 0)
(-0.647894 -0.272765 0)
(-0.645238 -0.323406 0)
(-0.63867 -0.372065 0)
(-0.627018 -0.417277 0)
(-0.608988 -0.457116 0)
(-0.583312 -0.489223 0)
(-0.548971 -0.510946 0)
(-0.505469 -0.519619 0)
(-0.453118 -0.51298 0)
(-0.393258 -0.489682 0)
(-0.328313 -0.449787 0)
(-0.261629 -0.395098 0)
(-0.197061 -0.329202 0)
(-0.138388 -0.25713 0)
(-0.0886958 -0.184722 0)
(-0.049919 -0.117871 0)
(-0.0226881 -0.0619017 0)
(-0.00656064 -0.0212828 0)
(-7.68688e-05 0.000261231 0)
(-0.0010148 0.0514727 0)
(-0.0116443 0.130686 0)
(-0.0296016 0.190248 0)
(-0.0527681 0.23536 0)
(-0.0792166 0.270835 0)
(-0.107929 0.300333 0)
(-0.138281 0.326136 0)
(-0.169844 0.349291 0)
(-0.20228 0.369944 0)
(-0.23526 0.387707 0)
(-0.268437 0.401946 0)
(-0.301431 0.411981 0)
(-0.333843 0.417204 0)
(-0.365268 0.417138 0)
(-0.395312 0.411469 0)
(-0.423618 0.400059 0)
(-0.449888 0.38295 0)
(-0.473902 0.360357 0)
(-0.495533 0.332643 0)
(-0.514758 0.300291 0)
(-0.531647 0.263864 0)
(-0.54636 0.223954 0)
(-0.559121 0.181146 0)
(-0.570198 0.135974 0)
(-0.579873 0.088898 0)
(-0.588416 0.040288 0)
(-0.596061 -0.00957683 0)
(-0.602994 -0.0604905 0)
(-0.609307 -0.112317 0)
(-0.614957 -0.164938 0)
(-0.619751 -0.218201 0)
(-0.623298 -0.271841 0)
(-0.624958 -0.325389 0)
(-0.623813 -0.378052 0)
(-0.618654 -0.428587 0)
(-0.608016 -0.475194 0)
(-0.590289 -0.515459 0)
(-0.563925 -0.546416 0)
(-0.527739 -0.564767 0)
(-0.481273 -0.567311 0)
(-0.425152 -0.551547 0)
(-0.361318 -0.516366 0)
(-0.29301 -0.462653 0)
(-0.224437 -0.393587 0)
(-0.160141 -0.31446 0)
(-0.104201 -0.232015 0)
(-0.0595306 -0.153463 0)
(-0.0275132 -0.0855288 0)
(-0.0081704 -0.0338875 0)
(-0.000157459 -0.00315059 0)
(-0.000944072 0.0573519 0)
(-0.0111523 0.145152 0)
(-0.0285836 0.210726 0)
(-0.0511988 0.259943 0)
(-0.0770925 0.298207 0)
(-0.10521 0.329635 0)
(-0.134874 0.356809 0)
(-0.165612 0.38093 0)
(-0.197053 0.402203 0)
(-0.228844 0.420235 0)
(-0.260625 0.434374 0)
(-0.292007 0.443917 0)
(-0.322591 0.448245 0)
(-0.351975 0.446887 0)
(-0.379782 0.43956 0)
(-0.405682 0.426178 0)
(-0.429414 0.406859 0)
(-0.45081 0.38191 0)
(-0.469804 0.351796 0)
(-0.486437 0.317103 0)
(-0.500845 0.278483 0)
(-0.513248 0.236606 0)
(-0.523925 0.192106 0)
(-0.533191 0.145545 0)
(-0.541372 0.0973868 0)
(-0.548775 0.0479772 0)
(-0.555674 -0.0024507 0)
(-0.562311 -0.0537623 0)
(-0.568848 -0.105915 0)
(-0.575331 -0.158922 0)
(-0.581685 -0.2128 0)
(-0.587657 -0.267505 0)
(-0.592762 -0.32284 0)
(-0.59622 -0.378324 0)
(-0.596905 -0.433037 0)
(-0.593332 -0.485454 0)
(-0.583702 -0.533302 0)
(-0.566058 -0.573506 0)
(-0.538574 -0.602309 0)
(-0.499962 -0.615635 0)
(-0.449952 -0.609737 0)
(-0.389708 -0.582055 0)
(-0.322032 -0.532117 0)
(-0.251198 -0.462202 0)
(-0.182355 -0.377465 0)
(-0.120599 -0.28537 0)
(-0.0699867 -0.194525 0)
(-0.0328913 -0.113342 0)
(-0.0100136 -0.0490408 0)
(-0.000261188 -0.00739497 0)
(-0.000843823 0.062899 0)
(-0.0103922 0.158977 0)
(-0.0269476 0.230466 0)
(-0.0486113 0.283769 0)
(-0.0735397 0.324797 0)
(-0.100652 0.358088 0)
(-0.129219 0.386516 0)
(-0.158724 0.411448 0)
(-0.188758 0.433154 0)
(-0.218953 0.451256 0)
(-0.248934 0.465085 0)
(-0.278315 0.473925 0)
(-0.306701 0.477152 0)
(-0.333707 0.474313 0)
(-0.358982 0.465165 0)
(-0.382233 0.449687 0)
(-0.403249 0.428083 0)
(-0.421916 0.40076 0)
(-0.43823 0.36829 0)
(-0.45229 0.331361 0)
(-0.464287 0.290711 0)
(-0.474484 0.247077 0)
(-0.483195 0.201137 0)
(-0.490758 0.153471 0)
(-0.497514 0.104538 0)
(-0.503783 0.054666 0)
(-0.509852 0.00404697 0)
(-0.515991 -0.0472438 0)
(-0.522405 -0.0992335 0)
(-0.529211 -0.152036 0)
(-0.536438 -0.205808 0)
(-0.543979 -0.260697 0)
(-0.551526 -0.316759 0)
(-0.558501 -0.373841 0)
(-0.563969 -0.431409 0)
(-0.566567 -0.488338 0)
(-0.564487 -0.542684 0)
(-0.555546 -0.591512 0)
(-0.537418 -0.630858 0)
(-0.508029 -0.655965 0)
(-0.466119 -0.661878 0)
(-0.411838 -0.644407 0)
(-0.347202 -0.601318 0)
(-0.276183 -0.53343 0)
(-0.204266 -0.445205 0)
(-0.137473 -0.344459 0)
(-0.0811114 -0.241151 0)
(-0.0387724 -0.145616 0)
(-0.0120871 -0.0670041 0)
(-0.000390603 -0.0125893 0)
(-0.000717781 0.0679777 0)
(-0.00938509 0.171867 0)
(-0.0247325 0.249097 0)
(-0.0450611 0.30644 0)
(-0.0686309 0.350202 0)
(-0.0943479 0.385291 0)
(-0.121436 0.414861 0)
(-0.14933 0.44045 0)
(-0.17759 0.462411 0)
(-0.205828 0.480389 0)
(-0.233668 0.493714 0)
(-0.260729 0.501663 0)
(-0.286635 0.503619 0)
(-0.311028 0.499156 0)
(-0.333593 0.48808 0)
(-0.354085 0.470446 0)
(-0.372346 0.446553 0)
(-0.388321 0.416911 0)
(-0.402062 0.382197 0)
(-0.413718 0.343194 0)
(-0.423518 0.300718 0)
(-0.431755 0.255561 0)
(-0.438752 0.208429 0)
(-0.444851 0.159914 0)
(-0.450383 0.110466 0)
(-0.455659 0.0603886 0)
(-0.460954 0.00984307 0)
(-0.466536 -0.0411398 0)
(-0.47263 -0.0926364 0)
(-0.479397 -0.144828 0)
(-0.486947 -0.197969 0)
(-0.495297 -0.252351 0)
(-0.50432 -0.308247 0)
(-0.513663 -0.365806 0)
(-0.522644 -0.424891 0)
(-0.530146 -0.484855 0)
(-0.534521 -0.544244 0)
(-0.533571 -0.600506 0)
(-0.524678 -0.649777 0)
(-0.505137 -0.68692 0)
(-0.472721 -0.705966 0)
(-0.426423 -0.701071 0)
(-0.367163 -0.667928 0)
(-0.298212 -0.605332 0)
(-0.225017 -0.516369 0)
(-0.15431 -0.408648 0)
(-0.0926605 -0.293232 0)
(-0.0450722 -0.182527 0)
(-0.0143762 -0.0880047 0)
(-0.000547667 -0.0188472 0)
(-0.000570942 0.0724663 0)
(-0.00816175 0.183549 0)
(-0.021997 0.266272 0)
(-0.0406334 0.32758 0)
(-0.0624772 0.374043 0)
(-0.0864376 0.410873 0)
(-0.111696 0.44148 0)
(-0.137642 0.467584 0)
(-0.163806 0.489633 0)
(-0.189785 0.507314 0)
(-0.215208 0.519967 0)
(-0.239709 0.526874 0)
(-0.262939 0.527436 0)
(-0.284579 0.521262 0)
(-0.304362 0.50822 0)
(-0.322095 0.488446 0)
(-0.337678 0.462334 0)
(-0.35111 0.4305 0)
(-0.362493 0.393718 0)
(-0.372011 0.352854 0)
(-0.379921 0.30879 0)
(-0.386522 0.262356 0)
(-0.392135 0.214279 0)
(-0.397079 0.165146 0)
(-0.401664 0.115392 0)
(-0.406169 0.0652977 0)
(-0.410841 0.0149969 0)
(-0.415926 -0.0355087 0)
(-0.421643 -0.0863258 0)
(-0.428174 -0.137672 0)
(-0.435676 -0.189858 0)
(-0.444264 -0.243269 0)
(-0.45396 -0.298333 0)
(-0.464627 -0.355449 0)
(-0.475862 -0.414847 0)
(-0.486859 -0.476373 0)
(-0.496266 -0.539164 0)
(-0.502073 -0.601257 0)
(-0.501613 -0.659203 0)
(-0.491781 -0.70786 0)
(-0.469534 -0.74058 0)
(-0.432687 -0.750024 0)
(-0.380852 -0.729667 0)
(-0.316211 -0.675784 0)
(-0.243736 -0.589345 0)
(-0.170537 -0.476995 0)
(-0.104335 -0.350436 0)
(-0.0516752 -0.224124 0)
(-0.0168556 -0.112219 0)
(-0.000733546 -0.0262738 0)
(-0.000409253 0.0762622 0)
(-0.00676111 0.193783 0)
(-0.0188172 0.281674 0)
(-0.0354396 0.346842 0)
(-0.0552226 0.395972 0)
(-0.0770991 0.434493 0)
(-0.100217 0.46605 0)
(-0.123923 0.492543 0)
(-0.14772 0.514536 0)
(-0.171196 0.531772 0)
(-0.19399 0.543619 0)
(-0.215762 0.549378 0)
(-0.2362 0.548477 0)
(-0.255032 0.540573 0)
(-0.272045 0.525597 0)
(-0.287103 0.503772 0)
(-0.300162 0.475586 0)
(-0.311271 0.441751 0)
(-0.320568 0.40313 0)
(-0.328265 0.360659 0)
(-0.334625 0.315269 0)
(-0.33994 0.267814 0)
(-0.344511 0.219025 0)
(-0.348628 0.169479 0)
(-0.35256 0.11959 0)
(-0.356547 0.0696118 0)
(-0.360797 0.0196565 0)
(-0.365518 -0.0302928 0)
(-0.37091 -0.0803567 0)
(-0.377152 -0.130765 0)
(-0.38442 -0.181846 0)
(-0.392888 -0.234031 0)
(-0.402689 -0.287842 0)
(-0.413866 -0.343853 0)
(-0.426272 -0.402596 0)
(-0.439432 -0.46437 0)
(-0.452369 -0.528933 0)
(-0.463415 -0.595048 0)
(-0.47009 -0.659952 0)
(-0.469165 -0.718895 0)
(-0.457028 -0.764995 0)
(-0.430438 -0.789759 0)
(-0.387606 -0.784506 0)
(-0.329318 -0.74265 0)
(-0.259621 -0.662314 0)
(-0.18557 -0.548287 0)
(-0.115802 -0.412194 0)
(-0.0584412 -0.270312 0)
(-0.0194897 -0.139758 0)
(-0.000948435 -0.0349602 0)
(-0.000239218 0.0792864 0)
(-0.00522832 0.20237 0)
(-0.0152836 0.295029 0)
(-0.0296131 0.363917 0)
(-0.04704 0.415674 0)
(-0.0665438 0.455853 0)
(-0.0872506 0.488292 0)
(-0.108472 0.515073 0)
(-0.129682 0.53689 0)
(-0.150468 0.553567 0)
(-0.170483 0.564514 0)
(-0.18942 0.569068 0)
(-0.207015 0.566695 0)
(-0.223047 0.557103 0)
(-0.237363 0.540294 0)
(-0.249883 0.516574 0)
(-0.260613 0.486521 0)
(-0.269646 0.450932 0)
(-0.277145 0.410742 0)
(-0.283334 0.366944 0)
(-0.28847 0.3205 0)
(-0.292826 0.272277 0)
(-0.296672 0.222998 0)
(-0.300257 0.173221 0)
(-0.303807 0.123334 0)
(-0.307518 0.0735664 0)
(-0.311552 0.0240102 0)
(-0.316076 -0.0253629 0)
(-0.321261 -0.0746749 0)
(-0.327267 -0.12415 0)
(-0.334266 -0.174107 0)
(-0.342457 -0.224982 0)
(-0.352043 -0.277332 0)
(-0.363192 -0.331836 0)
(-0.375968 -0.389238 0)
(-0.390198 -0.450214 0)
(-0.405295 -0.515098 0)
(-0.420023 -0.583429 0)
(-0.432278 -0.653324 0)
(-0.438982 -0.720786 0)
(-0.436257 -0.779193 0)
(-0.420046 -0.819392 0)
(-0.38722 -0.830835 0)
(-0.336972 -0.803946 0)
(-0.272013 -0.733382 0)
(-0.198863 -0.621107 0)
(-0.126721 -0.477727 0)
(-0.0652147 -0.320844 0)
(-0.0222347 -0.170661 0)
(-0.0011914 -0.0449797 0)