/*--------------------------------*- C++ -*----------------------------------*\
  =========                 |
  \\      /  F ield         | OpenFOAM: The Open Source CFD Toolbox
   \\    /   O peration     | Website:  https://openfoam.org
    \\  /    A nd           | Version:  7
     \\/     M anipulation  |
\*---------------------------------------------------------------------------*/
FoamFile
{
    version     2.0;
    format      ascii;
    class       volScalarField;
    location    "600";
    object      p;
}
// * * * * * * * * * * * * * * * * * * * * * * * * * * * * * * * * * * * * * //

dimensions      [0 2 -2 0 0 0 0];

internalField   nonuniform List<scalar> 
2500
(
4.58762e-07
7.17483e-05
-8.17642e-06
-0.000307144
-0.000781723
-0.00136947
-0.00203021
-0.00275945
-0.00358291
-0.00454129
-0.00567466
-0.00701291
-0.00857296
-0.0103545
-0.0123341
-0.0144575
-0.0166324
-0.0187272
-0.0205766
-0.0219985
-0.0228177
-0.0228947
-0.0221539
-0.0206116
-0.0183934
-0.0157255
-0.0129293
-0.0104223
-0.0086665
-0.00810034
-0.0090575
-0.011676
-0.015844
-0.0212665
-0.0274846
-0.0339368
-0.0400939
-0.0455545
-0.0500868
-0.0536154
-0.05619
-0.057945
-0.059055
-0.0596958
-0.0600194
-0.0601419
-0.0601413
-0.0600601
-0.0599209
-0.0597818
-6.83458e-05
4.53092e-06
-7.93492e-05
-0.000375955
-0.000828514
-0.00137286
-0.00197387
-0.00263303
-0.00337896
-0.00425199
-0.00529096
-0.00652583
-0.00797729
-0.00965308
-0.0115415
-0.0136058
-0.0157749
-0.0179372
-0.0199397
-0.0215984
-0.0227208
-0.0231366
-0.0227318
-0.0214819
-0.0194818
-0.0169482
-0.0142182
-0.0117274
-0.00995661
-0.00936351
-0.0102975
-0.0129185
-0.0171436
-0.0226243
-0.0288583
-0.0352974
-0.0413872
-0.0466864
-0.0509547
-0.0541647
-0.0564336
-0.0579429
-0.0588858
-0.0594352
-0.0597274
-0.0598595
-0.0598936
-0.0598591
-0.0597577
-0.059626
-1.81942e-05
5.04551e-05
-5.65703e-05
-0.000379188
-0.000831738
-0.00133846
-0.0018692
-0.00243679
-0.00308234
-0.00385341
-0.00479412
-0.00594488
-0.00734374
-0.00902518
-0.0110092
-0.0132845
-0.0157909
-0.0184063
-0.0209483
-0.02319
-0.024892
-0.02584
-0.0258823
-0.0249677
-0.0231879
-0.0207704
-0.018052
-0.0154665
-0.0135068
-0.0126539
-0.0132903
-0.0156153
-0.019585
-0.0248985
-0.0310475
-0.0374107
-0.0434098
-0.0486021
-0.0527064
-0.0556565
-0.0575817
-0.0587275
-0.0593472
-0.0596458
-0.0597677
-0.0598028
-0.0597978
-0.0597624
-0.0596665
-0.0595222
0.000229187
0.000267152
0.000102565
-0.000278881
-0.000754785
-0.0012362
-0.0017022
-0.00218496
-0.00274557
-0.00345512
-0.00438707
-0.00562096
-0.00724172
-0.00932638
-0.0119178
-0.0149957
-0.0184567
-0.0221124
-0.0257064
-0.0289479
-0.0315523
-0.0332799
-0.0339657
-0.0335458
-0.0320921
-0.029807
-0.0270028
-0.0241005
-0.0215953
-0.0199942
-0.0197355
-0.0211
-0.0241374
-0.0286359
-0.0341456
-0.0400637
-0.0457676
-0.0507374
-0.0546772
-0.0574964
-0.0592457
-0.0601362
-0.0604491
-0.0604442
-0.0603062
-0.0601449
-0.0600108
-0.0599049
-0.059775
-0.0596101
0.000708743
0.000678477
0.000419124
-4.3172e-05
-0.000554446
-0.00102841
-0.0014596
-0.00190807
-0.0024746
-0.00328124
-0.00446514
-0.00617425
-0.00854787
-0.0116815
-0.0155892
-0.02018
-0.0252571
-0.0305393
-0.0356958
-0.0403855
-0.0442938
-0.0471633
-0.0488157
-0.0491663
-0.0482448
-0.0461966
-0.0432866
-0.0398999
-0.0365086
-0.0336281
-0.0317514
-0.0312671
-0.0323782
-0.0350424
-0.0389603
-0.0436272
-0.048443
-0.0528463
-0.0564365
-0.0590255
-0.0606462
-0.0614545
-0.0616416
-0.0614574
-0.0611212
-0.0607763
-0.0604965
-0.060295
-0.0601187
-0.0599419
0.00146423
0.00133
0.000950459
0.000398755
-0.000167473
-0.00067409
-0.00114587
-0.00169577
-0.00249318
-0.00374441
-0.00567522
-0.00849969
-0.0123734
-0.017347
-0.0233401
-0.0301444
-0.0374501
-0.0448854
-0.052057
-0.0585849
-0.0641321
-0.0684282
-0.0712854
-0.0726049
-0.072385
-0.0707097
-0.0677769
-0.0639071
-0.0595079
-0.0550549
-0.0510512
-0.0479684
-0.0461732
-0.0458526
-0.0469616
-0.0492173
-0.0521572
-0.0552516
-0.0580328
-0.0601904
-0.0616031
-0.0623192
-0.0625024
-0.0623154
-0.0619296
-0.0615043
-0.0611388
-0.0608705
-0.0606653
-0.0604939
0.00253404
0.00227103
0.0017621
0.00111052
0.000453485
-0.000165996
-0.00083621
-0.00175299
-0.00318597
-0.00544537
-0.0088331
-0.0135782
-0.019777
-0.0273622
-0.0361085
-0.0456672
-0.0556137
-0.0654949
-0.0748689
-0.0833361
-0.0905619
-0.0962907
-0.10035
-0.10265
-0.103185
-0.102007
-0.09924
-0.0951191
-0.0899465
-0.0840952
-0.0779969
-0.072118
-0.0669166
-0.0627827
-0.0599689
-0.0585331
-0.0583172
-0.0589827
-0.0601021
-0.0612731
-0.0622069
-0.0627639
-0.0629424
-0.0628302
-0.0625312
-0.0621568
-0.0618065
-0.0615379
-0.0613423
-0.0611972
0.00392446
0.00352534
0.00288622
0.00211244
0.00129698
0.000411905
-0.000728271
-0.0024329
-0.00508716
-0.00908501
-0.0147416
-0.0222126
-0.0314502
-0.0422093
-0.0540903
-0.0665995
-0.07921
-0.0914124
-0.102752
-0.112852
-0.121426
-0.128275
-0.133275
-0.136365
-0.137562
-0.136927
-0.134532
-0.130521
-0.125079
-0.118435
-0.110877
-0.102756
-0.0944841
-0.0865174
-0.0793169
-0.0732835
-0.0686817
-0.0655757
-0.0638083
-0.0630473
-0.0628882
-0.0629699
-0.0630474
-0.0630137
-0.062865
-0.0626425
-0.0624091
-0.0622184
-0.0620784
-0.0619778
0.00558056
0.00505228
0.00427797
0.00333946
0.00224091
0.000843875
-0.00116403
-0.00421887
-0.00879785
-0.0153088
-0.0239807
-0.0347979
-0.0474984
-0.0616236
-0.0765958
-0.0917984
-0.106644
-0.120621
-0.133322
-0.144448
-0.153805
-0.161282
-0.166822
-0.170406
-0.172079
-0.171937
-0.170025
-0.166421
-0.161211
-0.154496
-0.1464
-0.137096
-0.126829
-0.115945
-0.10491
-0.094294
-0.0847163
-0.0767362
-0.0707156
-0.0667055
-0.064428
-0.0633855
-0.0630441
-0.0629891
-0.0629901
-0.0629709
-0.0629265
-0.0628799
-0.0628351
-0.0627901
0.0073517
0.00670847
0.0057878
0.00460253
0.0030236
0.000771895
-0.00260474
-0.007647
-0.0148539
-0.0245417
-0.0367454
-0.0511982
-0.0673834
-0.08463
-0.102217
-0.119466
-0.135803
-0.150789
-0.164125
-0.17563
-0.185219
-0.192871
-0.198594
-0.202406
-0.20437
-0.20461
-0.203163
-0.20007
-0.195365
-0.189066
-0.181183
-0.171729
-0.160753
-0.148385
-0.1349
-0.120774
-0.106716
-0.0936175
-0.0824011
-0.0737739
-0.0679863
-0.0647383
-0.0633289
-0.0629673
-0.0630425
-0.0632242
-0.0634045
-0.0635426
-0.0636178
-0.0636325
0.00897971
0.00824051
0.00713794
0.00557288
0.00324789
-0.000270155
-0.00555648
-0.0131928
-0.0235958
-0.0368769
-0.0527894
-0.0707719
-0.0900587
-0.109814
-0.129252
-0.147725
-0.164757
-0.180046
-0.193431
-0.204854
-0.214325
-0.221889
-0.227596
-0.231484
-0.233617
-0.234123
-0.233035
-0.230385
-0.226188
-0.220437
-0.213094
-0.20409
-0.193339
-0.180773
-0.166409
-0.150444
-0.133371
-0.116056
-0.0997085
-0.0856657
-0.0749986
-0.0681018
-0.0645321
-0.0632629
-0.0631901
-0.0635332
-0.0639319
-0.0642676
-0.0644728
-0.0645477
0.010111
0.00928068
0.00792906
0.00580692
0.00242937
-0.00277984
-0.0104681
-0.0211633
-0.0350873
-0.0520537
-0.0714865
-0.0925366
-0.114246
-0.135706
-0.156171
-0.175113
-0.192219
-0.207345
-0.220463
-0.231609
-0.24085
-0.248263
-0.25391
-0.257832
-0.260082
-0.260771
-0.259923
-0.257571
-0.253735
-0.248413
-0.241571
-0.233131
-0.222966
-0.21091
-0.196795
-0.180528
-0.162231
-0.142419
-0.122142
-0.102976
-0.0867167
-0.07478
-0.0675837
-0.0643655
-0.0636487
-0.0640146
-0.0646099
-0.0651378
-0.0654749
-0.065613
0.0103169
0.00938119
0.0076894
0.00481144
7.94797e-05
-0.00718883
-0.0176355
-0.0316301
-0.0491046
-0.0695216
-0.0919795
-0.1154
-0.138731
-0.161101
-0.181902
-0.200786
-0.217614
-0.232384
-0.245163
-0.256039
-0.265097
-0.272414
-0.278046
-0.282022
-0.284377
-0.285203
-0.28451
-0.282331
-0.278691
-0.273605
-0.267062
-0.259015
-0.249364
-0.237945
-0.224531
-0.208865
-0.190757
-0.170258
-0.147918
-0.125021
-0.103581
-0.0858891
-0.0736234
-0.06701
-0.0647332
-0.0647774
-0.0655216
-0.0662335
-0.0667109
-0.0669242
0.00915291
0.00808648
0.00595285
0.00213204
-0.00420013
-0.0137749
-0.0271407
-0.0444171
-0.0651873
-0.0885585
-0.113356
-0.138371
-0.162567
-0.185211
-0.205886
-0.224436
-0.240872
-0.25529
-0.267801
-0.278506
-0.287483
-0.29479
-0.300465
-0.304526
-0.306989
-0.307929
-0.307345
-0.305266
-0.30172
-0.296726
-0.290295
-0.282415
-0.273037
-0.262055
-0.249283
-0.234447
-0.217214
-0.197295
-0.174682
-0.150005
-0.124865
-0.101819
-0.0836629
-0.0721464
-0.0669618
-0.0659871
-0.0667177
-0.0676218
-0.0682637
-0.0685775
0.00624316
0.00501359
0.00234603
-0.00255902
-0.0106389
-0.0226072
-0.0388379
-0.0591386
-0.0827283
-0.1084
-0.134796
-0.160682
-0.185143
-0.207636
-0.22795
-0.246089
-0.262168
-0.276325
-0.288681
-0.29932
-0.308299
-0.315655
-0.321409
-0.325569
-0.328136
-0.329176
-0.328684
-0.326679
-0.323185
-0.318222
-0.311807
-0.30395
-0.294641
-0.283838
-0.271438
-0.257244
-0.240941
-0.222118
-0.20039
-0.175711
-0.148868
-0.121935
-0.0981359
-0.0806994
-0.0710741
-0.0679545
-0.0682708
-0.0693638
-0.0702063
-0.0706629
0.00134922
-7.40492e-05
-0.00333904
-0.00939957
-0.0192542
-0.0335352
-0.0523829
-0.0752677
-0.101071
-0.128345
-0.15565
-0.181828
-0.206141
-0.228258
-0.24814
-0.265905
-0.281716
-0.295716
-0.308007
-0.318647
-0.327669
-0.335093
-0.34093
-0.345179
-0.347837
-0.348963
-0.348554
-0.346621
-0.34318
-0.338246
-0.331834
-0.323957
-0.314625
-0.303837
-0.291563
-0.277707
-0.262064
-0.244275
-0.223839
-0.200271
-0.173535
-0.144726
-0.116612
-0.093205
-0.0778966
-0.0712034
-0.0703456
-0.071525
-0.0726155
-0.073271
-0.00558111
-0.00721911
-0.0111044
-0.0183121
-0.0298491
-0.0462166
-0.0672904
-0.0922142
-0.119588
-0.147814
-0.175463
-0.201521
-0.225451
-0.247108
-0.266581
-0.284049
-0.29968
-0.313597
-0.325872
-0.336536
-0.345604
-0.353084
-0.358985
-0.363304
-0.366034
-0.367231
-0.366896
-0.365035
-0.361657
-0.356772
-0.350389
-0.342517
-0.333166
-0.32235
-0.310077
-0.296333
-0.281033
-0.263956
-0.244683
-0.222598
-0.19712
-0.168321
-0.137864
-0.109519
-0.0880616
-0.0764088
-0.0732604
-0.0742077
-0.075605
-0.0765081
-0.0143995
-0.0162591
-0.0207444
-0.0290175
-0.0420465
-0.0601717
-0.0830016
-0.109392
-0.137735
-0.166369
-0.193947
-0.219628
-0.243069
-0.264268
-0.283392
-0.300635
-0.316148
-0.330019
-0.342289
-0.352971
-0.362066
-0.369579
-0.37552
-0.379886
-0.38267
-0.383921
-0.383652
-0.381857
-0.378548
-0.373729
-0.367406
-0.35958
-0.350256
-0.339445
-0.327166
-0.313442
-0.298273
-0.281583
-0.26312
-0.242368
-0.218565
-0.19106
-0.160248
-0.12878
-0.101727
-0.0842138
-0.0774741
-0.0775726
-0.0792983
-0.080486
-0.0247778
-0.0268501
-0.0318777
-0.0410784
-0.0553448
-0.0748461
-0.0989457
-0.126268
-0.155071
-0.183699
-0.210932
-0.236106
-0.259034
-0.279816
-0.298652
-0.315724
-0.331148
-0.34498
-0.357236
-0.367916
-0.377016
-0.384541
-0.3905
-0.394894
-0.397717
-0.39901
-0.398794
-0.39706
-0.393817
-0.38907
-0.382822
-0.375073
-0.365822
-0.355071
-0.342835
-0.329142
-0.314031
-0.297521
-0.27953
-0.259746
-0.237501
-0.211849
-0.182183
-0.149639
-0.118447
-0.0949946
-0.0834917
-0.0818495
-0.083801
-0.0853176
-0.0362545
-0.0385157
-0.044001
-0.0539586
-0.0691794
-0.0896699
-0.114586
-0.142383
-0.171251
-0.199592
-0.226325
-0.250944
-0.273384
-0.2938
-0.312397
-0.329327
-0.344671
-0.358457
-0.370683
-0.381342
-0.390428
-0.397947
-0.40391
-0.408321
-0.411171
-0.412495
-0.412323
-0.41064
-0.407458
-0.40278
-0.39661
-0.388949
-0.379796
-0.369148
-0.357011
-0.343404
-0.32837
-0.311971
-0.294238
-0.275065
-0.254018
-0.230207
-0.202498
-0.170639
-0.137254
-0.108694
-0.0917402
-0.0873311
-0.0892035
-0.091122
-0.048294
-0.0507076
-0.0565513
-0.0670846
-0.0829802
-0.104104
-0.129451
-0.157363
-0.18602
-0.213904
-0.24007
-0.264143
-0.286138
-0.306237
-0.324628
-0.34143
-0.356693
-0.370421
-0.382602
-0.393225
-0.402286
-0.40979
-0.41575
-0.420169
-0.423039
-0.424385
-0.424249
-0.422609
-0.419478
-0.414861
-0.408764
-0.401191
-0.392142
-0.381616
-0.369614
-0.356147
-0.341245
-0.324973
-0.307418
-0.288618
-0.268392
-0.246103
-0.220544
-0.190536
-0.156906
-0.124787
-0.102417
-0.0942967
-0.0955981
-0.0980111
-0.0603467
-0.0628657
-0.068964
-0.0798986
-0.0962156
-0.117669
-0.143141
-0.170913
-0.199185
-0.226531
-0.252126
-0.275692
-0.297294
-0.317118
-0.335326
-0.352007
-0.367184
-0.380845
-0.392972
-0.403553
-0.412584
-0.420069
-0.42602
-0.430444
-0.433329
-0.43469
-0.434583
-0.432978
-0.429889
-0.425324
-0.41929
-0.411795
-0.402844
-0.39244
-0.380586
-0.367288
-0.352566
-0.336473
-0.319102
-0.300568
-0.280888
-0.259729
-0.236112
-0.208486
-0.176171
-0.142374
-0.115375
-0.102937
-0.103093
-0.106042
-0.0718986
-0.0744721
-0.0807198
-0.0918988
-0.108422
-0.129964
-0.155338
-0.182803
-0.210602
-0.237397
-0.262457
-0.285572
-0.306832
-0.326416
-0.34446
-0.361025
-0.376113
-0.389705
-0.401776
-0.412314
-0.421316
-0.428783
-0.434725
-0.439151
-0.442048
-0.443418
-0.443335
-0.441757
-0.438701
-0.434177
-0.428194
-0.420765
-0.411898
-0.401605
-0.389891
-0.376768
-0.362249
-0.346376
-0.329229
-0.310946
-0.29166
-0.271306
-0.249258
-0.224039
-0.194028
-0.160365
-0.130101
-0.113266
-0.111743
-0.115153
-0.0825317
-0.0850656
-0.0913791
-0.102664
-0.119218
-0.140668
-0.165792
-0.19286
-0.220164
-0.246439
-0.271024
-0.293751
-0.314721
-0.334098
-0.351994
-0.36845
-0.383455
-0.39698
-0.409
-0.419502
-0.428479
-0.435932
-0.441868
-0.446294
-0.449202
-0.450577
-0.450512
-0.448954
-0.445922
-0.441426
-0.435481
-0.4281
-0.4193
-0.409097
-0.397507
-0.384544
-0.370228
-0.354591
-0.337703
-0.319694
-0.300748
-0.280984
-0.260129
-0.237045
-0.209764
-0.177675
-0.145786
-0.125041
-0.121453
-0.125106
-0.0919292
-0.0942697
-0.100582
-0.111867
-0.128314
-0.14954
-0.174323
-0.200959
-0.227788
-0.253604
-0.277788
-0.300195
-0.320924
-0.340125
-0.357893
-0.374252
-0.389183
-0.402653
-0.414633
-0.425108
-0.43407
-0.441516
-0.44745
-0.451879
-0.454795
-0.456177
-0.456122
-0.454578
-0.451558
-0.447078
-0.441154
-0.433802
-0.425046
-0.414909
-0.403414
-0.390586
-0.37645
-0.361041
-0.344422
-0.32671
-0.308098
-0.28881
-0.268853
-0.247517
-0.222953
-0.193373
-0.161461
-0.137733
-0.131879
-0.135479
-0.099843
-0.101855
-0.10806
-0.119266
-0.135503
-0.156411
-0.180801
-0.207008
-0.233414
-0.258847
-0.28271
-0.304864
-0.325403
-0.344462
-0.362123
-0.378403
-0.393276
-0.406705
-0.418661
-0.429124
-0.438084
-0.445534
-0.451474
-0.45591
-0.458835
-0.460229
-0.460178
-0.458642
-0.455625
-0.451146
-0.445223
-0.437878
-0.429138
-0.419035
-0.4076
-0.394869
-0.380877
-0.365665
-0.349297
-0.331882
-0.313608
-0.294743
-0.275482
-0.255518
-0.23339
-0.206753
-0.176148
-0.150596
-0.14248
-0.145733
-0.106107
-0.107703
-0.113656
-0.12471
-0.140669
-0.161199
-0.185171
-0.210968
-0.237009
-0.262138
-0.28576
-0.307727
-0.328121
-0.34707
-0.364651
-0.380874
-0.39571
-0.40912
-0.421071
-0.431541
-0.440514
-0.447983
-0.453942
-0.458392
-0.461329
-0.462734
-0.462686
-0.461154
-0.45813
-0.453638
-0.447698
-0.440334
-0.43158
-0.421474
-0.410058
-0.397377
-0.383479
-0.368415
-0.352255
-0.335108
-0.317158
-0.298683
-0.279992
-0.26109
-0.241002
-0.217344
-0.188976
-0.162786
-0.15262
-0.1553
-0.110655
-0.111777
-0.117331
-0.128139
-0.14376
-0.16386
-0.187389
-0.212794
-0.238527
-0.263435
-0.286902
-0.308758
-0.329067
-0.347948
-0.365477
-0.381667
-0.39649
-0.409905
-0.421874
-0.432371
-0.441376
-0.448877
-0.454863
-0.459331
-0.462275
-0.463685
-0.463634
-0.462105
-0.459065
-0.454545
-0.448569
-0.441163
-0.432363
-0.422217
-0.410776
-0.398096
-0.384233
-0.369253
-0.353238
-0.336303
-0.318633
-0.300511
-0.282301
-0.264226
-0.245772
-0.224863
-0.199259
-0.173485
-0.161671
-0.163639
-0.113514
-0.114132
-0.119151
-0.1296
-0.144819
-0.164434
-0.187482
-0.21249
-0.237945
-0.262687
-0.286066
-0.307875
-0.328153
-0.347011
-0.364528
-0.38072
-0.395563
-0.409016
-0.421037
-0.431594
-0.440665
-0.448229
-0.454274
-0.458791
-0.461773
-0.463204
-0.463129
-0.461571
-0.458481
-0.453895
-0.447842
-0.440353
-0.431472
-0.421246
-0.409734
-0.396999
-0.383109
-0.368144
-0.352198
-0.335397
-0.317936
-0.300104
-0.282298
-0.264874
-0.247695
-0.229164
-0.206504
-0.181984
-0.16906
-0.170268
-0.114793
-0.114908
-0.119272
-0.129223
-0.143953
-0.163013
-0.185527
-0.210108
-0.23529
-0.259899
-0.283242
-0.30506
-0.32536
-0.34424
-0.361781
-0.378008
-0.392903
-0.406423
-0.418526
-0.429174
-0.438337
-0.445991
-0.452116
-0.456699
-0.459731
-0.461202
-0.461129
-0.45955
-0.45641
-0.451749
-0.445599
-0.437992
-0.428973
-0.4186
-0.406941
-0.394072
-0.380078
-0.365048
-0.349084
-0.332327
-0.314984
-0.297357
-0.279866
-0.26295
-0.246749
-0.230178
-0.210387
-0.187713
-0.174292
-0.174771
-0.114668
-0.114317
-0.117929
-0.127208
-0.141328
-0.159739
-0.181631
-0.205723
-0.230602
-0.255084
-0.278423
-0.300297
-0.320668
-0.339617
-0.357224
-0.373524
-0.388505
-0.40213
-0.414351
-0.425124
-0.434413
-0.442187
-0.44842
-0.453092
-0.456192
-0.457709
-0.457642
-0.456044
-0.452846
-0.448092
-0.44182
-0.434065
-0.424875
-0.414312
-0.402452
-0.389377
-0.37518
-0.359967
-0.343865
-0.327036
-0.309702
-0.292176
-0.274898
-0.258362
-0.242899
-0.227879
-0.21072
-0.19024
-0.176941
-0.176781
-0.113367
-0.112622
-0.11542
-0.123834
-0.137174
-0.154802
-0.175948
-0.199439
-0.223935
-0.248254
-0.27159
-0.29355
-0.314038
-0.333105
-0.350825
-0.367243
-0.382354
-0.396124
-0.408505
-0.419446
-0.428902
-0.436833
-0.443207
-0.447998
-0.451187
-0.452761
-0.452708
-0.451088
-0.447827
-0.442966
-0.436548
-0.428611
-0.419204
-0.408396
-0.396268
-0.38291
-0.368426
-0.352934
-0.336574
-0.31953
-0.302052
-0.284489
-0.267305
-0.251019
-0.236095
-0.222258
-0.207401
-0.189256
-0.176636
-0.175975
-0.111155
-0.110113
-0.112083
-0.119435
-0.131779
-0.148444
-0.168673
-0.191398
-0.215373
-0.239435
-0.26273
-0.284781
-0.305419
-0.324653
-0.342541
-0.359129
-0.374421
-0.388387
-0.400976
-0.412132
-0.4218
-0.429932
-0.436486
-0.441429
-0.444735
-0.446386
-0.446365
-0.444723
-0.441397
-0.436417
-0.429831
-0.421678
-0.412011
-0.400901
-0.388435
-0.37471
-0.359838
-0.343952
-0.327209
-0.309814
-0.292047
-0.274288
-0.257041
-0.240863
-0.226296
-0.213317
-0.200393
-0.184555
-0.173057
-0.172055
-0.108308
-0.107084
-0.108262
-0.114386
-0.125485
-0.140953
-0.160042
-0.18178
-0.205032
-0.228681
-0.25184
-0.273949
-0.294755
-0.314201
-0.332318
-0.34914
-0.364676
-0.378897
-0.391752
-0.403178
-0.413112
-0.421496
-0.428277
-0.433413
-0.43687
-0.438625
-0.438657
-0.437
-0.433612
-0.428506
-0.42173
-0.41333
-0.40336
-0.391891
-0.379014
-0.364834
-0.34947
-0.333067
-0.315801
-0.297903
-0.279687
-0.261572
-0.244107
-0.227884
-0.213497
-0.201076
-0.189704
-0.176017
-0.165916
-0.164738
-0.105095
-0.103802
-0.104278
-0.109069
-0.118671
-0.132662
-0.150334
-0.170805
-0.193061
-0.216069
-0.238931
-0.261019
-0.28198
-0.301678
-0.320087
-0.337222
-0.353079
-0.367631
-0.380824
-0.392589
-0.402854
-0.411548
-0.418611
-0.423988
-0.427639
-0.42953
-0.429639
-0.427983
-0.42454
-0.419305
-0.412325
-0.40365
-0.393334
-0.381449
-0.368089
-0.353362
-0.337396
-0.320348
-0.302415
-0.283855
-0.26502
-0.246375
-0.228523
-0.212105
-0.197755
-0.185608
-0.175392
-0.1636
-0.154966
-0.153752
-0.101751
-0.100485
-0.100391
-0.103839
-0.111731
-0.123936
-0.13986
-0.158722
-0.179646
-0.201706
-0.224039
-0.245962
-0.267027
-0.286995
-0.305765
-0.323301
-0.339579
-0.35456
-0.368182
-0.380371
-0.391044
-0.400121
-0.40753
-0.413206
-0.417099
-0.419168
-0.419386
-0.417755
-0.414268
-0.408905
-0.401711
-0.392736
-0.382035
-0.369679
-0.355763
-0.340397
-0.323719
-0.305896
-0.287148
-0.267765
-0.24814
-0.228793
-0.210381
-0.193599
-0.179139
-0.167059
-0.157585
-0.147346
-0.140018
-0.138839
-0.0984604
-0.0972904
-0.0967893
-0.0989871
-0.105042
-0.115161
-0.128963
-0.145817
-0.165002
-0.185736
-0.207227
-0.228772
-0.249834
-0.270061
-0.289249
-0.307288
-0.324106
-0.339636
-0.353805
-0.366525
-0.377704
-0.387252
-0.395085
-0.40113
-0.405324
-0.407622
-0.407988
-0.406412
-0.4029
-0.397415
-0.39
-0.380706
-0.369585
-0.356707
-0.342164
-0.326071
-0.308571
-0.289847
-0.270141
-0.249778
-0.2292
-0.208983
-0.189846
-0.172539
-0.157786
-0.145636
-0.136483
-0.127374
-0.12097
-0.119769
-0.0953543
-0.0943202
-0.0935807
-0.0947138
-0.0989233
-0.106715
-0.118003
-0.132396
-0.149377
-0.168338
-0.188599
-0.209476
-0.230365
-0.250795
-0.27044
-0.289082
-0.306574
-0.322802
-0.337662
-0.351049
-0.362857
-0.372984
-0.381337
-0.387833
-0.3924
-0.394986
-0.395548
-0.394066
-0.390553
-0.384961
-0.377326
-0.367698
-0.356127
-0.34268
-0.327447
-0.310545
-0.292124
-0.272383
-0.251588
-0.230105
-0.208426
-0.18719
-0.167177
-0.149183
-0.133962
-0.121569
-0.112346
-0.10387
-0.0978118
-0.0963042
-0.0925099
-0.09163
-0.0908052
-0.0911188
-0.0936019
-0.0989233
-0.107333
-0.118782
-0.13304
-0.149724
-0.168306
-0.188159
-0.208637
-0.229161
-0.249263
-0.268594
-0.286901
-0.303992
-0.319715
-0.333932
-0.346518
-0.357359
-0.366348
-0.373394
-0.378421
-0.381365
-0.382182
-0.380842
-0.377358
-0.371681
-0.363835
-0.353867
-0.341825
-0.327773
-0.311799
-0.294021
-0.274599
-0.253745
-0.231757
-0.209041
-0.186143
-0.163763
-0.142739
-0.123908
-0.10804
-0.0951491
-0.0855314
-0.0770592
-0.0705924
-0.068103
-0.0899595
-0.0892423
-0.0884548
-0.0882068
-0.0891784
-0.0920112
-0.0972505
-0.105282
-0.116273
-0.130142
-0.146558
-0.164981
-0.184755
-0.205203
-0.225716
-0.24579
-0.265038
-0.283162
-0.299934
-0.315167
-0.328707
-0.340417
-0.350181
-0.357898
-0.363484
-0.366873
-0.368015
-0.366875
-0.363458
-0.357728
-0.34969
-0.339388
-0.326868
-0.312193
-0.295448
-0.276755
-0.25628
-0.234258
-0.211013
-0.186992
-0.162796
-0.139182
-0.117034
-0.0972164
-0.0804914
-0.0667938
-0.0564661
-0.0472091
-0.0395138
-0.0347647
-0.0876946
-0.0871529
-0.0864927
-0.0859066
-0.0856143
-0.0860452
-0.087936
-0.092145
-0.0993517
-0.109872
-0.123628
-0.140201
-0.158945
-0.179104
-0.199929
-0.220755
-0.241035
-0.260341
-0.278344
-0.294786
-0.309466
-0.322221
-0.332915
-0.341438
-0.347701
-0.351633
-0.353182
-0.352312
-0.349017
-0.343276
-0.33508
-0.324467
-0.311486
-0.296196
-0.278684
-0.259075
-0.237548
-0.214353
-0.189844
-0.164507
-0.138985
-0.11408
-0.0907035
-0.0697264
-0.0518835
-0.0370312
-0.0256184
-0.0146476
-0.00521369
0.00377018
-0.0856583
-0.0853223
-0.0848592
-0.0840861
-0.0827303
-0.0808955
-0.0793869
-0.0795064
-0.0825141
-0.0892214
-0.0998704
-0.114202
-0.131597
-0.151233
-0.172232
-0.193765
-0.215118
-0.235712
-0.255094
-0.272918
-0.288919
-0.302891
-0.314677
-0.324152
-0.331219
-0.335804
-0.337854
-0.337333
-0.334229
-0.328538
-0.320237
-0.309363
-0.295966
-0.28011
-0.261882
-0.241415
-0.218898
-0.194599
-0.168896
-0.142301
-0.115483
-0.0892577
-0.0645334
-0.0421535
-0.0228067
-0.00630756
0.00677834
0.0205272
0.0314668
0.0473138
-0.0837301
-0.0836546
-0.0834466
-0.0825419
-0.0802084
-0.0762222
-0.0713767
-0.0673341
-0.0659284
-0.0685216
-0.0757407
-0.0875245
-0.103303
-0.1222
-0.143216
-0.165368
-0.187775
-0.209699
-0.230553
-0.249884
-0.267347
-0.282687
-0.29571
-0.306272
-0.314268
-0.319619
-0.322273
-0.322193
-0.319364
-0.313798
-0.305472
-0.294419
-0.280696
-0.26437
-0.245538
-0.22434
-0.200975
-0.175727
-0.148984
-0.121266
-0.0932349
-0.0656767
-0.0394433
-0.0152989
0.00615655
0.0251659
0.0411328
0.0591158
0.0714712
0.097952
-0.0817158
-0.0819672
-0.0820472
-0.0809556
-0.0775885
-0.0715026
-0.0634733
-0.0554263
-0.0496822
-0.048131
-0.0518119
-0.0608981
-0.0748946
-0.0928891
-0.113778
-0.136434
-0.159822
-0.183049
-0.20539
-0.226279
-0.245284
-0.262086
-0.27645
-0.288206
-0.297236
-0.303455
-0.30681
-0.307267
-0.304813
-0.299463
-0.291217
-0.280104
-0.266187
-0.249545
-0.230285
-0.208556
-0.18457
-0.158611
-0.131063
-0.10242
-0.0732926
-0.0443791
-0.0164107
0.00999595
0.0344068
0.0572515
0.0781382
0.102911
0.119929
0.162999
-0.0794024
-0.0800089
-0.0803738
-0.078931
-0.0743308
-0.0661231
-0.0551513
-0.0435027
-0.0338345
-0.0284602
-0.0287965
-0.0352634
-0.0474679
-0.0644878
-0.085139
-0.108177
-0.132427
-0.156858
-0.180618
-0.203027
-0.223566
-0.241847
-0.257588
-0.270589
-0.280714
-0.287872
-0.292007
-0.293091
-0.291113
-0.286088
-0.278044
-0.267015
-0.253078
-0.236325
-0.216873
-0.194881
-0.17056
-0.144187
-0.116111
-0.0867633
-0.0566465
-0.0263055
0.00372638
0.0330632
0.0615243
0.0898591
0.118073
0.153258
0.183052
0.247768
-0.0768947
-0.0777416
-0.0782362
-0.0761875
-0.070137
-0.0597126
-0.0460543
-0.0314122
-0.0185524
-0.0100323
-0.007554
-0.0117516
-0.0223456
-0.0384353
-0.0587951
-0.0820965
-0.107058
-0.132535
-0.157562
-0.181362
-0.203331
-0.223015
-0.240085
-0.254309
-0.26553
-0.273648
-0.278606
-0.280379
-0.278966
-0.274386
-0.266675
-0.255884
-0.242107
-0.22546
-0.206071
-0.184094
-0.159731
-0.133227
-0.104874
-0.0749989
-0.0439432
-0.0120221
0.0205374
0.0537293
0.0877986
0.123937
0.162458
0.21212
0.259638
0.338234
-0.0754778
-0.076173
-0.0762966
-0.0730684
-0.0651875
-0.05254
-0.0364718
-0.019492
-0.00437521
0.00638049
0.0108809
0.00834783
-0.00101607
-0.0163488
-0.0364266
-0.0598837
-0.0853727
-0.111669
-0.137725
-0.162682
-0.185869
-0.206774
-0.225024
-0.240356
-0.252592
-0.261623
-0.267388
-0.269866
-0.269064
-0.265015
-0.257773
-0.247382
-0.233926
-0.217549
-0.198399
-0.176634
-0.152427
-0.125976
-0.0974924
-0.0671748
-0.0351622
-0.00146053
0.0341628
0.0723755
0.114346
0.162404
0.21762
0.288755
0.349143
0.424138
-0.0796547
-0.0789513
-0.0773368
-0.0717232
-0.0611763
-0.0459438
-0.0276308
-0.00883806
0.00765726
0.0196464
0.0253675
0.0238235
0.0152036
0.000347467
-0.0195456
-0.0431079
-0.0689643
-0.0958462
-0.122654
-0.148476
-0.17259
-0.194441
-0.21362
-0.22984
-0.242906
-0.252699
-0.259154
-0.262252
-0.262005
-0.258452
-0.251658
-0.241709
-0.228684
-0.212663
-0.1938
-0.172274
-0.148244
-0.121864
-0.0932639
-0.0625035
-0.0294973
0.00612081
0.0452011
0.089459
0.141815
0.207493
0.291291
0.403232
0.495526
0.603135
-0.103084
-0.0952583
-0.0868064
-0.0760149
-0.0616532
-0.0433296
-0.0226891
-0.00230865
0.0153667
0.0281286
0.0342912
0.0331705
0.0249595
0.0104493
-0.00920646
-0.0326741
-0.058594
-0.0856935
-0.112853
-0.139134
-0.163781
-0.18621
-0.205984
-0.222794
-0.23643
-0.246761
-0.253718
-0.257277
-0.257453
-0.254286
-0.247843
-0.238207
-0.225477
-0.209761
-0.191184
-0.169881
-0.146002
-0.119669
-0.0909437
-0.0597626
-0.0258219
0.0116234
0.0540898
0.1045
0.167983
0.254038
0.375342
0.555422
0.767431
1.10763
-0.189913
-0.112152
-0.0805593
-0.0713283
-0.058053
-0.0386886
-0.0170071
0.00397902
0.0217633
0.034174
0.0398092
0.0381883
0.029585
0.0148193
-0.00496223
-0.0284625
-0.0543676
-0.0814438
-0.108598
-0.134907
-0.159619
-0.182149
-0.202055
-0.219019
-0.232827
-0.24334
-0.250484
-0.254233
-0.254599
-0.251621
-0.245366
-0.235915
-0.223366
-0.207831
-0.189426
-0.168283
-0.144533
-0.118272
-0.0895034
-0.0580665
-0.0234934
0.0152414
0.0601316
0.114922
0.186173
0.286234
0.434997
0.680098
1.07915
1.82836
)
;

boundaryField
{
    movingWall
    {
        type            zeroGradient;
    }
    fixedWalls
    {
        type            zeroGradient;
    }
    frontAndBack
    {
        type            empty;
    }
}


// ************************************************************************* //
