/*--------------------------------*- C++ -*----------------------------------*\
  =========                 |
  \\      /  F ield         | OpenFOAM: The Open Source CFD Toolbox
   \\    /   O peration     | Website:  https://openfoam.org
    \\  /    A nd           | Version:  7
     \\/     M anipulation  |
\*---------------------------------------------------------------------------*/
FoamFile
{
    version     2.0;
    format      ascii;
    class       surfaceScalarField;
    location    "600";
    object      phi;
}
// * * * * * * * * * * * * * * * * * * * * * * * * * * * * * * * * * * * * * //

dimensions      [0 3 -1 0 0 0 0];

internalField   nonuniform List<scalar> 
4900
(
1.69704e-06
-1.70808e-06
6.22473e-06
-4.52769e-06
1.17184e-05
-5.49362e-06
1.65044e-05
-4.78604e-06
1.97513e-05
-3.2469e-06
2.13895e-05
-1.63835e-06
2.17671e-05
-3.7771e-07
2.12606e-05
5.06459e-07
2.00127e-05
1.24775e-06
1.7859e-05
2.1535e-06
1.44061e-05
3.45283e-06
9.16657e-06
5.23937e-06
1.64907e-06
7.51737e-06
-8.59879e-06
1.02477e-05
-2.19267e-05
1.33278e-05
-3.84977e-05
1.65709e-05
-5.82161e-05
1.97183e-05
-8.06464e-05
2.24301e-05
-0.00010495
2.43033e-05
-0.000129869
2.49192e-05
-0.000153776
2.39072e-05
-0.000174785
2.10081e-05
-0.000190911
1.61265e-05
-0.00020028
9.36903e-06
-0.00020137
1.08961e-06
-0.000193238
-8.13222e-06
-0.000175638
-1.75999e-05
-0.00014909
-2.65478e-05
-0.000114887
-3.42031e-05
-7.50531e-05
-3.98338e-05
-3.22396e-05
-4.28135e-05
1.04387e-05
-4.26783e-05
4.97238e-05
-3.92851e-05
8.27618e-05
-3.3038e-05
0.000107374
-2.46127e-05
0.000122294
-1.492e-05
0.000127404
-5.10979e-06
0.000123782
3.62189e-06
0.000113425
1.03577e-05
9.87224e-05
1.47021e-05
8.20196e-05
1.67027e-05
6.52553e-05
1.67643e-05
4.97766e-05
1.54787e-05
3.6319e-05
1.34575e-05
2.51113e-05
1.12077e-05
1.60463e-05
9.06496e-06
8.89782e-06
7.14846e-06
3.59683e-06
5.30099e-06
5.0608e-07
3.09074e-06
5.06079e-07
4.47366e-06
-6.18182e-06
1.38487e-05
-1.39027e-05
2.43112e-05
-1.59561e-05
3.28986e-05
-1.33736e-05
3.79987e-05
-8.34707e-06
3.92214e-05
-2.86128e-06
3.68487e-05
1.99469e-06
3.1187e-05
6.16783e-06
2.21274e-05
1.0307e-05
9.04088e-06
1.52397e-05
-9.07068e-06
2.1564e-05
-3.33088e-05
2.94771e-05
-6.45734e-05
3.87816e-05
-0.000103304
4.8978e-05
-0.00014927
5.92938e-05
-0.00020141
6.8711e-05
-0.000257777
7.60843e-05
-0.000315657
8.03103e-05
-0.000371852
8.04986e-05
-0.000423027
7.60932e-05
-0.000466041
6.69215e-05
-0.000498217
5.31838e-05
-0.0005175
3.54096e-05
-0.000522549
1.44177e-05
-0.000512818
-8.64101e-06
-0.000488401
-3.2549e-05
-0.000449934
-5.60669e-05
-0.000398619
-7.7863e-05
-0.000336283
-9.65389e-05
-0.0002654
-0.000110717
-0.000189058
-0.000119155
-0.000110832
-0.000120904
-3.46036e-05
-0.000115514
3.55545e-05
-0.000103196
9.59473e-05
-8.50056e-05
0.000143758
-6.27305e-05
0.000177061
-3.84128e-05
0.000195064
-1.43814e-05
0.000198357
7.06414e-06
0.000189036
2.40238e-05
0.000170245
3.54929e-05
0.000145577
4.14324e-05
0.000118441
4.26145e-05
9.16049e-05
4.02937e-05
6.69371e-05
3.58755e-05
4.54268e-05
3.05752e-05
2.74656e-05
2.51096e-05
1.3339e-05
1.94276e-05
3.75697e-06
1.26728e-05
4.26304e-06
5.98772e-06
-1.21696e-05
1.73366e-05
-2.52519e-05
2.87985e-05
-2.74182e-05
3.68145e-05
-2.13897e-05
3.95232e-05
-1.10559e-05
3.63358e-05
3.25869e-07
2.71889e-05
1.11413e-05
1.18741e-05
2.14823e-05
-1.03748e-05
3.25557e-05
-4.08362e-05
4.57007e-05
-8.08699e-05
6.15975e-05
-0.000131399
8.00058e-05
-0.000192487
9.98693e-05
-0.000263027
0.000119518
-0.00034067
0.000136937
-0.000422057
0.000150098
-0.000503268
0.000157296
-0.000580351
0.000157393
-0.000649759
0.000149907
-0.000708632
0.000134965
-0.000754885
0.000113174
-0.000787165
8.5464e-05
-0.00080471
5.29551e-05
-0.000807171
1.68782e-05
-0.000794413
-2.1399e-05
-0.000766453
-6.05093e-05
-0.000723601
-9.89193e-05
-0.000666588
-0.000134875
-0.000596653
-0.000166474
-0.000515639
-0.000191732
-0.000426065
-0.000208729
-0.000331127
-0.000215842
-0.000234609
-0.000212032
-0.000140646
-0.000197159
-5.34683e-05
-0.000172184
2.29592e-05
-0.000139158
8.56601e-05
-0.000101114
0.000132841
-6.15625e-05
0.000163534
-2.36292e-05
0.000177881
9.67717e-06
0.000177416
3.59582e-05
0.000164939
5.3909e-05
0.000143998
6.35554e-05
0.000118275
6.6017e-05
9.10302e-05
6.312e-05
6.47402e-05
5.68652e-05
4.10654e-05
4.87844e-05
2.12089e-05
3.92841e-05
6.60785e-06
2.72737e-05
1.08709e-05
6.5082e-06
-1.8678e-05
1.7593e-05
-3.6337e-05
2.6942e-05
-3.67675e-05
3.07402e-05
-2.51881e-05
2.7182e-05
-7.49793e-06
1.55737e-05
1.1934e-05
-4.62139e-06
3.13361e-05
-3.44187e-05
5.12793e-05
-7.53423e-05
7.3479e-05
-0.000128869
9.92269e-05
-0.000195727
0.000128455
-0.000275332
0.000159611
-0.000365556
0.000190092
-0.000462905
0.000216867
-0.000563064
0.000237095
-0.000661582
0.000248616
-0.000754485
0.000250198
-0.000838634
0.000241542
-0.000911823
0.000223095
-0.00097265
0.000195792
-0.00102029
0.000160816
-0.00105426
0.00011943
-0.0010742
7.28997e-05
-0.00107981
2.24815e-05
-0.00107068
-3.05254e-05
-0.00104652
-8.46722e-05
-0.00100716
-0.000138272
-0.000952689
-0.00018935
-0.000883505
-0.000235659
-0.000800539
-0.000274697
-0.000705421
-0.000303848
-0.000600636
-0.000320627
-0.000489601
-0.000323067
-0.000376588
-0.000310172
-0.000266429
-0.000282343
-0.000163978
-0.000241609
-7.35555e-05
-0.000191537
1.56291e-06
-0.000136681
5.97994e-05
-8.18658e-05
0.00010085
-3.13735e-05
0.00012497
1.18383e-05
0.000133447
4.54314e-05
0.000128787
6.82162e-05
0.000114282
8.05214e-05
9.35167e-05
8.38854e-05
6.98525e-05
8.05293e-05
4.61072e-05
7.25297e-05
2.46325e-05
6.07588e-05
7.92732e-06
4.39789e-05
1.87982e-05
6.20347e-06
-2.48817e-05
1.48874e-05
-4.50213e-05
1.91882e-05
-4.10686e-05
1.54457e-05
-2.14458e-05
2.11318e-06
5.8343e-06
-2.16944e-05
3.57413e-05
-5.71554e-05
6.67969e-05
-0.000105997
0.000100121
-0.000169842
0.000137324
-0.00024925
0.000178635
-0.000343033
0.000222238
-0.000448167
0.000264745
-0.000560267
0.000302192
-0.000674387
0.000330987
-0.000785851
0.000348559
-0.000890839
0.000353605
-0.000986627
0.000345986
-0.0010715
0.000326417
-0.00114451
0.000296104
-0.00120517
0.000256454
-0.00125324
0.000208888
-0.00128858
0.000154764
-0.00131104
9.53593e-05
-0.00132046
3.19032e-05
-0.00131657
-3.44132e-05
-0.00129901
-0.000102232
-0.0012673
-0.000169986
-0.00122086
-0.000235788
-0.00115917
-0.000297354
-0.00108192
-0.000351941
-0.000989366
-0.000396404
-0.0008826
-0.000427394
-0.000763912
-0.000441754
-0.000636998
-0.000437087
-0.000506918
-0.000412423
-0.0003797
-0.000368827
-0.000261547
-0.00030969
-0.000157761
-0.000240467
-7.18729e-05
-0.000167754
-5.32773e-06
-9.79188e-05
4.24144e-05
-3.59038e-05
7.25995e-05
1.52462e-05
8.68308e-05
5.39849e-05
8.76347e-05
7.97175e-05
7.82189e-05
9.33012e-05
6.2095e-05
9.66532e-05
4.27238e-05
9.19008e-05
2.34002e-05
8.00824e-05
7.60072e-06
5.97784e-05
2.63989e-05
4.89453e-06
-2.97764e-05
8.86674e-06
-4.8994e-05
5.26253e-06
-3.74648e-05
-8.96693e-06
-7.21669e-06
-3.51665e-05
3.20336e-05
-7.44999e-05
7.50745e-05
-0.000128686
0.000120983
-0.000199473
0.000170907
-0.000287414
0.000225265
-0.00039098
0.000282201
-0.000506519
0.000337777
-0.000628965
0.000387191
-0.000752866
0.000426094
-0.000873317
0.000451437
-0.000986516
0.000461758
-0.00108991
0.000456997
-0.00118201
0.000438091
-0.00126213
0.000406533
-0.00133007
0.000364041
-0.00138595
0.000312341
-0.00143011
0.000253049
-0.00146297
0.000187621
-0.00148494
0.000117332
-0.00149635
4.33096e-05
-0.00149729
-3.3473e-05
-0.00148753
-0.000111994
-0.00146644
-0.000191073
-0.00143299
-0.000269243
-0.00138577
-0.000344567
-0.00132323
-0.000414481
-0.00124392
-0.00047572
-0.00114693
-0.000524384
-0.00103246
-0.000556219
-0.000902387
-0.000567162
-0.00076066
-0.000554149
-0.000613406
-0.000516081
-0.000468408
-0.000454689
-0.000333922
-0.000374953
-0.000217017
-0.000284658
-0.000122007
-0.000192929
-4.98549e-05
-0.000108056
1.07207e-06
-3.56808e-05
3.33759e-05
2.1681e-05
4.96089e-05
6.34845e-05
5.27292e-05
9.01808e-05
4.61506e-05
0.000103232
3.35752e-05
0.000104476
1.88639e-05
9.47937e-05
6.11097e-06
7.25313e-05
3.25099e-05
2.26834e-06
-3.20449e-05
-9.34042e-07
-4.5792e-05
-1.50414e-05
-2.33578e-05
-4.22447e-05
1.99863e-05
-8.37275e-05
7.35162e-05
-0.000140925
0.000132271
-0.000215535
0.000195593
-0.000308233
0.000263605
-0.000417476
0.000334507
-0.000539313
0.000404038
-0.000668193
0.000466656
-0.00079818
0.000517178
-0.000924005
0.000551919
-0.00104165
0.000569084
-0.00114847
0.000568577
-0.00124299
0.000551515
-0.00132463
0.000519733
-0.00139348
0.000475384
-0.00145011
0.000420669
-0.00149543
0.00035766
-0.00153056
0.000288181
-0.00155667
0.000213731
-0.00157482
0.00013548
-0.00158582
5.43117e-05
-0.00159017
-2.91311e-05
-0.00158786
-0.000114304
-0.00157836
-0.000200567
-0.00156051
-0.000287095
-0.00153247
-0.000372611
-0.00149179
-0.000455157
-0.00143561
-0.000531897
-0.00136101
-0.00059899
-0.00126559
-0.000651642
-0.0011483
-0.000684448
-0.00101034
-0.000692109
-0.000855878
-0.000670545
-0.000692313
-0.000618254
-0.000529687
-0.000537578
-0.000379018
-0.000435328
-0.000249789
-0.000322157
-0.000147486
-0.000210359
-7.25783e-05
-0.000110589
-2.1766e-05
-2.91314e-05
9.27284e-06
3.24457e-05
2.43973e-05
7.50564e-05
2.73909e-05
0.000100238
2.22108e-05
0.000109656
1.30364e-05
0.000103968
4.20984e-06
8.13578e-05
3.67197e-05
-1.92587e-06
-3.01192e-05
-1.46786e-05
-3.30397e-05
-4.13676e-05
3.33077e-06
-8.32826e-05
6.19011e-05
-0.000141436
0.000131669
-0.000217224
0.00020806
-0.000311427
0.000289796
-0.000422756
0.000374933
-0.000547312
0.000459063
-0.000679286
0.000536012
-0.00081229
0.00059966
-0.000940563
0.000645451
-0.00105966
0.000671018
-0.00116663
0.000676054
-0.00125985
0.000661796
-0.00133879
0.000630453
-0.00140378
0.000584723
-0.00145583
0.000527437
-0.00149644
0.000461281
-0.00152738
0.0003886
-0.00155048
0.000311275
-0.00156743
0.000230683
-0.00157969
0.000147737
-0.00158835
6.2975e-05
-0.00159415
-2.33354e-05
-0.00159734
-0.00011111
-0.00159767
-0.000200234
-0.00159423
-0.000290532
-0.00158536
-0.000381488
-0.0015685
-0.00047202
-0.00154019
-0.000560199
-0.00149623
-0.000642951
-0.00143204
-0.000715832
-0.00134348
-0.000773013
-0.00122793
-0.000807652
-0.00108567
-0.000812809
-0.000920975
-0.000782949
-0.000742705
-0.000715849
-0.0005636
-0.000614433
-0.000398031
-0.000487726
-0.000258397
-0.000349993
-0.000151475
-0.00021751
-7.69211e-05
-0.000103686
-2.92746e-05
-1.52008e-05
-2.10852e-06
4.78903e-05
9.94849e-06
8.81812e-05
1.17139e-05
0.000107891
7.78299e-06
0.000107899
2.59845e-06
8.65424e-05
3.93182e-05
-7.75514e-06
-2.23642e-05
-3.19267e-05
-8.86853e-06
-7.25438e-05
4.39476e-05
-0.000129863
0.00011922
-0.000204706
0.000206511
-0.000297798
0.000301152
-0.000408242
0.00040024
-0.000532525
0.000499215
-0.000664866
0.000591404
-0.000798532
0.000669679
-0.000927213
0.000728341
-0.0010459
0.000764133
-0.00115117
0.000776288
-0.00124114
0.000766031
-0.00131528
0.000735929
-0.00137412
0.000689301
-0.00141912
0.000629721
-0.0014523
0.000560617
-0.00147599
0.000484969
-0.00149252
0.000405126
-0.001504
0.00032276
-0.00151224
0.00023892
-0.00151865
0.000154145
-0.00152428
6.86099e-05
-0.00152987
-1.77457e-05
-0.00153583
-0.000105152
-0.00154221
-0.000193852
-0.00154863
-0.000284109
-0.0015541
-0.000376023
-0.00155675
-0.000469367
-0.00155363
-0.00056332
-0.0015405
-0.000656088
-0.00151187
-0.000744461
-0.00146147
-0.000823412
-0.00138318
-0.000885935
-0.00127257
-0.000923425
-0.0011287
-0.000926817
-0.000955925
-0.000888624
-0.000764746
-0.000805612
-0.000571045
-0.000681427
-0.000393038
-0.000528
-0.000246262
-0.000364286
-0.000138466
-0.000211483
-6.77561e-05
-8.59103e-05
-2.59339e-05
6.06805e-06
-4.33716e-06
6.65845e-05
3.85459e-06
9.96992e-05
4.27461e-06
0.000107479
1.71266e-06
8.91043e-05
4.10308e-05
-1.49464e-05
-7.41799e-06
-5.16951e-05
2.78798e-05
-0.000106534
9.87867e-05
-0.000178788
0.000191474
-0.000268805
0.000296528
-0.000376038
0.000408385
-0.000497615
0.000521816
-0.000628132
0.000629732
-0.000760733
0.000724006
-0.000888601
0.000797546
-0.00100608
0.000845816
-0.00110917
0.000867228
-0.00119564
0.000862756
-0.00126484
0.00083523
-0.00131751
0.000788599
-0.00135548
0.000727268
-0.00138128
0.000655525
-0.00139775
0.000577085
-0.00140762
0.000494837
-0.00141326
0.000410771
-0.00141658
0.000326081
-0.001419
0.000241334
-0.00142152
0.000156671
-0.00142487
7.19608e-05
-0.00142956
-1.30606e-05
-0.00143597
-9.87425e-05
-0.00144437
-0.000185449
-0.0014549
-0.000273581
-0.00146739
-0.000363538
-0.0014811
-0.000455654
-0.00149438
-0.000550035
-0.00150423
-0.000646239
-0.00150591
-0.000742783
-0.00149285
-0.000836477
-0.00145703
-0.000921751
-0.00139019
-0.000990265
-0.00128577
-0.00103124
-0.00114149
-0.0010329
-0.000961799
-0.000985303
-0.000759203
-0.000884023
-0.000553266
-0.000733937
-0.000366452
-0.000551099
-0.000217245
-0.00036069
-0.000113387
-0.000189769
-5.02229e-05
-5.70961e-05
-1.63614e-05
3.27229e-05
-1.3034e-06
8.46411e-05
2.74204e-06
0.000103433
1.64673e-06
9.01997e-05
4.26776e-05
-2.30001e-05
1.5582e-05
-7.24728e-05
7.73522e-05
-0.000140746
0.00016706
-0.000226304
0.000277032
-0.000328619
0.000398843
-0.00044556
0.000525325
-0.000572453
0.000648709
-0.000702661
0.00075994
-0.000829029
0.000850373
-0.000945253
0.00091377
-0.00104668
0.00094724
-0.00113057
0.000951116
-0.00119606
0.000928251
-0.00124398
0.000883152
-0.00127649
0.000821101
-0.00129657
0.000747357
-0.00130755
0.000666505
-0.00131254
0.000582067
-0.0013141
0.0004964
-0.00131416
0.00041083
-0.00131399
0.000325913
-0.00131437
0.000241718
-0.00131575
0.000158049
-0.00131839
7.4595e-05
-0.00132248
-8.96974e-06
-0.00132827
-9.29532e-05
-0.00133607
-0.000177651
-0.00134628
-0.000263366
-0.00135933
-0.000350485
-0.00137549
-0.000439495
-0.00139456
-0.000530965
-0.0014154
-0.000625402
-0.00143529
-0.000722897
-0.00144929
-0.000822473
-0.00144991
-0.000921132
-0.00142739
-0.00101279
-0.00137111
-0.00108751
-0.0012722
-0.00113182
-0.00112696
-0.00113054
-0.000940261
-0.00107073
-0.000727255
-0.000946943
-0.000511938
-0.000766417
-0.000321278
-0.00055135
-0.000175879
-0.000335168
-8.16501e-05
-0.000151325
-2.96416e-05
-1.92856e-05
-5.40894e-06
6.04084e-05
2.48577e-06
9.55388e-05
2.17936e-06
9.0506e-05
4.48569e-05
-3.11737e-05
4.67556e-05
-9.24468e-05
0.000138625
-0.000172443
0.000247055
-0.000268687
0.000373275
-0.000379516
0.000509672
-0.000501241
0.00064705
-0.000627866
0.000775334
-0.000752214
0.000884288
-0.000867446
0.000965605
-0.000968183
0.00101451
-0.00105104
0.0010301
-0.00111478
0.00101485
-0.00116011
0.000973579
-0.00118937
0.000912416
-0.00120596
0.00083769
-0.00121362
0.000755019
-0.00121584
0.000668723
-0.00121541
0.000581633
-0.00121426
0.000495252
-0.00121354
0.000410107
-0.00121377
0.000326146
-0.0012151
0.000243049
-0.00121748
0.000160433
-0.00122083
7.79418e-05
-0.0012251
-4.69968e-06
-0.00123037
-8.76837e-05
-0.00123686
-0.000171161
-0.00124497
-0.000255256
-0.00125529
-0.000340168
-0.00126855
-0.000426235
-0.0012855
-0.000514011
-0.0013066
-0.000604306
-0.00133141
-0.000698088
-0.00135776
-0.000796114
-0.00138079
-0.000898102
-0.00139219
-0.00100139
-0.00138039
-0.00109931
-0.00133225
-0.00117996
-0.00123644
-0.00122635
-0.00108805
-0.00121911
-0.000893078
-0.00114192
-0.000670447
-0.000989048
-0.000449533
-0.000772264
-0.000261702
-0.000522998
-0.000127819
-0.000285207
-4.91797e-05
-9.79252e-05
-1.12931e-05
2.25217e-05
2.14931e-06
8.20963e-05
2.87819e-06
8.97772e-05
4.77351e-05
-3.85923e-05
8.53477e-05
-0.000109889
0.000209922
-0.000199141
0.000336307
-0.0003028
0.000476935
-0.000418007
0.000624879
-0.000539799
0.000768842
-0.000661433
0.000896968
-0.000775795
0.00099865
-0.000876808
0.00106662
-0.000960314
0.00109801
-0.00102443
0.00109422
-0.00106953
0.00105995
-0.00109792
0.00100197
-0.0011132
0.000927703
-0.00111951
0.000844001
-0.00112071
0.000756211
-0.00111982
0.000667836
-0.00111886
0.000580678
-0.00111889
0.000495283
-0.00112026
0.00041147
-0.00112287
0.000328758
-0.00112646
0.000246643
-0.00113074
0.000164711
-0.00113547
8.26724e-05
-0.00114052
3.50095e-07
-0.00114587
-8.2336e-05
-0.00115162
-0.000165415
-0.001158
-0.000248875
-0.00116544
-0.000332728
-0.0011746
-0.000417071
-0.00118643
-0.000502179
-0.00120209
-0.000588646
-0.00122268
-0.000677504
-0.00124857
-0.000770222
-0.00127834
-0.000868332
-0.00130733
-0.000972402
-0.00132645
-0.00108018
-0.0013222
-0.00118421
-0.00127867
-0.00126989
-0.0011821
-0.00131568
-0.001027
-0.00129702
-0.000821792
-0.00119425
-0.000590841
-0.00100321
-0.000369896
-0.000743943
-0.000193723
-0.000461381
-8.00102e-05
-0.000211638
-2.19675e-05
-3.5521e-05
2.35888e-07
5.9893e-05
3.2689e-06
8.67441e-05
5.1004e-05
-4.4489e-05
0.000129837
-0.000123371
0.000288804
-0.000218925
0.00043186
-0.000326469
0.000584479
-0.000442061
0.00074047
-0.000559886
0.000886668
-0.000672997
0.00101008
-0.000774805
0.00110046
-0.000860308
0.00115212
-0.00092677
0.00116447
-0.000973907
0.00114135
-0.00100367
0.00108972
-0.00101967
0.00101796
-0.00102627
0.0009343
-0.00102767
0.000845407
-0.00102723
0.00075577
-0.00102711
0.000667716
-0.00102837
0.000581929
-0.00103122
0.000498137
-0.00103544
0.00041569
-0.00104062
0.000333936
-0.00104635
0.000252378
-0.00105234
0.000170694
-0.00105837
8.87041e-05
-0.00106434
6.32766e-06
-0.00107024
-7.64456e-05
-0.00107606
-0.000159588
-0.0010819
-0.000243037
-0.00108792
-0.000326713
-0.00109445
-0.000410542
-0.00110211
-0.00049452
-0.00111191
-0.00057884
-0.00112532
-0.000664095
-0.00114403
-0.000751516
-0.00116926
-0.000843097
-0.00120041
-0.000941253
-0.00123306
-0.00104753
-0.00125721
-0.00116006
-0.00125706
-0.00127004
-0.00121372
-0.00135903
-0.0011113
-0.00139944
-0.000944974
-0.00136058
-0.000727746
-0.00122044
-0.000491549
-0.00098014
-0.00027899
-0.00067394
-0.000125351
-0.000365276
-3.96932e-05
-0.000121179
-4.40534e-06
2.4605e-05
3.02634e-06
7.93124e-05
5.40303e-05
-4.82937e-05
0.00017813
-0.00013191
0.00037242
-0.000230619
0.000530568
-0.000338609
0.000692469
-0.000451097
0.000852958
-0.000561857
0.000997427
-0.000664184
0.00111241
-0.00075234
0.00118861
-0.00082259
0.00122237
-0.000873693
0.00121558
-0.000906892
0.00117455
-0.000925445
0.00110827
-0.00093375
0.00102627
-0.000936304
0.000936854
-0.000936807
0.00084591
-0.000937693
0.000756656
-0.000940122
0.000670145
-0.000944297
0.000586104
-0.000949889
0.000503729
-0.000956393
0.000422195
-0.00096335
0.000340893
-0.000970432
0.00025946
-0.000977453
0.000177715
-0.00098433
9.55813e-05
-0.000991043
1.30404e-05
-0.000997594
-6.98947e-05
-0.00100399
-0.000153195
-0.00101021
-0.000236816
-0.00101625
-0.000320673
-0.00102214
-0.00040465
-0.00102806
-0.000488599
-0.00103448
-0.000572416
-0.0010424
-0.000656182
-0.00105346
-0.000740454
-0.00106991
-0.000826649
-0.00109382
-0.000917343
-0.00112538
-0.00101597
-0.00116027
-0.00112517
-0.00118714
-0.00124316
-0.00118735
-0.00135882
-0.00113882
-0.00144797
-0.00102438
-0.00147501
-0.000842113
-0.00140271
-0.000612657
-0.0012096
-0.000377743
-0.000908854
-0.000185614
-0.000557406
-6.59167e-05
-0.000240876
-1.23473e-05
-2.89645e-05
2.03524e-06
6.49298e-05
5.60656e-05
-4.96781e-05
0.000227808
-0.000135019
0.000457761
-0.0002338
0.000629349
-0.000339156
0.000797825
-0.00044575
0.000959552
-0.000547338
0.00109902
-0.000637794
0.00120286
-0.000712424
0.00126324
-0.000768824
0.00127877
-0.00080717
0.00125392
-0.000829977
0.00119736
-0.000841352
0.00111964
-0.000845916
0.00103083
-0.000847733
0.000938671
-0.000849622
0.000847799
-0.000852998
0.000760032
-0.000858155
0.000675302
-0.000864739
0.000592688
-0.00087218
0.000511169
-0.000879968
0.000429983
-0.000887767
0.000348691
-0.00089541
0.000267103
-0.000902857
0.000185162
-0.000910136
0.00010286
-0.000917297
2.0202e-05
-0.000924385
-6.28076e-05
-0.000931411
-0.000146169
-0.000938352
-0.000229875
-0.000945134
-0.000313891
-0.000951647
-0.000398137
-0.000957778
-0.000482468
-0.00096352
-0.000566674
-0.000969167
-0.000650535
-0.000975617
-0.000734004
-0.000984684
-0.000817582
-0.000999126
-0.0009029
-0.00102185
-0.000993246
-0.00105373
-0.00109329
-0.0010901
-0.00120679
-0.00111749
-0.00133143
-0.00111362
-0.00145184
-0.00105333
-0.00153531
-0.000919985
-0.00153606
-0.000718135
-0.00141145
-0.000479954
-0.00114704
-0.000258102
-0.000779258
-0.000101454
-0.000397524
-2.37524e-05
-0.000106666
3.02594e-07
4.08748e-05
5.63682e-05
-4.85565e-05
0.000276365
-0.000132669
0.000541873
-0.000228708
0.000725388
-0.000328861
0.000897978
-0.000427522
0.00105821
-0.000518749
0.00119024
-0.000597205
0.00128132
-0.000659319
0.00132536
-0.000703948
0.0013234
-0.000732466
0.00128244
-0.000748269
0.00121316
-0.000755802
0.00112718
-0.000759396
0.00103443
-0.000762329
0.000941604
-0.000766432
0.000851902
-0.000772241
0.000765842
-0.000779474
0.000682535
-0.000787537
0.00060075
-0.000795871
0.000519504
-0.000804116
0.000438228
-0.000812111
0.000356686
-0.000819843
0.000274835
-0.000827378
0.000192697
-0.000834807
0.00011029
-0.000842215
2.76101e-05
-0.000849666
-5.53571e-05
-0.000857188
-0.000138647
-0.000864774
-0.000222289
-0.000872365
-0.000306299
-0.000879839
-0.000390663
-0.000886999
-0.000475308
-0.000893605
-0.000560068
-0.000899472
-0.000644668
-0.00090471
-0.000728766
-0.000910123
-0.000812169
-0.000917691
-0.000895333
-0.000930729
-0.000980208
-0.000952966
-0.00107105
-0.000985676
-0.00117408
-0.00102305
-0.00129406
-0.00104824
-0.00142664
-0.00103452
-0.00154904
-0.000954496
-0.00161608
-0.000795573
-0.00157037
-0.000573914
-0.00136869
-0.00033699
-0.00101618
-0.000146037
-0.000588478
-3.89954e-05
-0.000213707
-2.31116e-06
4.19037e-06
5.4057e-05
-4.50492e-05
0.000321414
-0.000125204
0.000622028
-0.000216073
0.000816257
-0.000309025
0.00099093
-0.000398423
0.00114761
-0.000478852
0.00127067
-0.000545873
0.00134834
-0.000596998
0.00137648
-0.000632172
0.00135857
-0.000653639
0.00130391
-0.000665238
0.00122476
-0.000671295
0.00113323
-0.000675505
0.00103864
-0.000680236
0.000946335
-0.000686443
0.000858109
-0.000694053
0.000773452
-0.000702511
0.000690993
-0.000711223
0.000609462
-0.000719784
0.000528065
-0.000728018
0.000446462
-0.000735921
0.00036459
-0.000743579
0.000282493
-0.000751107
0.000200225
-0.000758615
0.000117798
-0.000766189
3.51837e-05
-0.000773892
-4.76542e-05
-0.000781758
-0.00013078
-0.0007898
-0.000214248
-0.00079799
-0.000298108
-0.000806251
-0.000382402
-0.000814426
-0.000467134
-0.000822257
-0.000552237
-0.000829398
-0.000637527
-0.000835508
-0.000722656
-0.00084053
-0.000807147
-0.000845215
-0.000890647
-0.000851793
-0.00097363
-0.000864251
-0.0010586
-0.000887098
-0.00115124
-0.000921463
-0.00125969
-0.00095903
-0.00138908
-0.000977899
-0.00153017
-0.000946456
-0.00164752
-0.000837768
-0.00167906
-0.000649032
-0.00155743
-0.000414315
-0.0012509
-0.000197625
-0.000805168
-5.87343e-05
-0.000352598
-5.87756e-06
-4.86665e-05
4.81794e-05
-3.94295e-05
0.000360843
-0.000113224
0.000695822
-0.00019694
0.000899973
-0.000281243
0.00107523
-0.000360643
0.00122701
-0.000430391
0.00134042
-0.000486959
0.0014049
-0.00052882
0.00141834
-0.000556745
0.0013865
-0.000573489
0.00132065
-0.000582926
0.0012342
-0.000588928
0.00113924
-0.000594403
0.00104411
-0.000600871
0.000952804
-0.000608641
0.000865879
-0.000617311
0.000782121
-0.000626285
0.000699967
-0.000635105
0.000618282
-0.000643553
0.000536512
-0.000651609
0.000454518
-0.000659368
0.000372348
-0.000666958
0.000290084
-0.000674505
0.000207771
-0.000682107
0.0001254
-0.000689839
4.29152e-05
-0.000697753
-3.97399e-05
-0.000705881
-0.000122652
-0.00071424
-0.000205888
-0.000722828
-0.000289521
-0.000731609
-0.000373621
-0.000740495
-0.000458248
-0.000749307
-0.000543424
-0.000757743
-0.000629091
-0.000765363
-0.000715036
-0.000771689
-0.000800821
-0.000776536
-0.0008858
-0.000780695
-0.000969471
-0.000786822
-0.00105247
-0.000799757
-0.0011383
-0.000824641
-0.00123481
-0.00086138
-0.00135234
-0.000897048
-0.0014945
-0.000902885
-0.00164168
-0.000843517
-0.00173842
-0.000698063
-0.00170289
-0.000481861
-0.0014671
-0.000252137
-0.00103489
-8.31139e-05
-0.000521621
-1.03771e-05
-0.000121403
3.78023e-05
-3.20697e-05
0.000392913
-9.74787e-05
0.000761231
-0.000172494
0.000974988
-0.000247182
0.00114992
-0.000316307
0.00129614
-0.000375848
0.00139996
-0.000423126
0.00145218
-0.000457393
0.00145261
-0.000479957
0.00140906
-0.000493731
0.00133442
-0.000502313
0.00124278
-0.000508932
0.00114586
-0.000515712
0.00105089
-0.000523501
0.000960593
-0.000532209
0.000874586
-0.000541325
0.000791237
-0.000550352
0.000708994
-0.000559005
0.000626935
-0.000567223
0.00054473
-0.000575089
0.000462385
-0.000582742
0.000380002
-0.000590317
0.000297659
-0.000597924
0.000215379
-0.000605648
0.000133124
-0.000613547
5.08148e-05
-0.000621667
-3.16204e-05
-0.00063003
-0.000114288
-0.000638653
-0.000197265
-0.000647541
-0.000280633
-0.000656681
-0.000364481
-0.000666031
-0.000448898
-0.000675495
-0.00053396
-0.000684877
-0.000619709
-0.000693828
-0.000706085
-0.00070182
-0.000792829
-0.000708253
-0.000879367
-0.000712876
-0.000964848
-0.000716684
-0.00104866
-0.000723049
-0.00113194
-0.000737869
-0.00121999
-0.000766404
-0.0013238
-0.000805371
-0.00145553
-0.000834345
-0.00161271
-0.000816825
-0.00175594
-0.000718116
-0.00180159
-0.000533022
-0.00165219
-0.0003043
-0.00126361
-0.000111124
-0.000714797
-1.58125e-05
-0.000216715
2.19898e-05
-2.33938e-05
0.000416307
-7.87727e-05
0.00081661
-0.000143934
0.00104015
-0.000208431
0.00121442
-0.000267321
0.00135503
-0.000317308
0.00144995
-0.000356458
0.00149133
-0.00038459
0.00148074
-0.000403266
0.00142774
-0.000415269
0.00134643
-0.000423704
0.00125122
-0.000431106
0.00115326
-0.000438917
0.0010587
-0.000447518
0.000969194
-0.000456625
0.000883694
-0.000465767
0.000800378
-0.00047459
0.000717818
-0.000482967
0.000635312
-0.000490944
0.000552707
-0.000498653
0.000470094
-0.000506242
0.00038759
-0.000513831
0.000305248
-0.000521514
0.000223062
-0.000529363
0.000140973
-0.000537428
5.88809e-05
-0.000545752
-2.32969e-05
-0.00055435
-0.00010569
-0.000563234
-0.00018838
-0.000572408
-0.000271458
-0.000581865
-0.000355025
-0.000591582
-0.000439181
-0.00060151
-0.000524032
-0.000611541
-0.000609678
-0.000621454
-0.000696171
-0.000630846
-0.000783437
-0.000639091
-0.000871122
-0.000645485
-0.000958453
-0.000649818
-0.00104433
-0.000653561
-0.00112819
-0.00066121
-0.00121234
-0.00067979
-0.00130522
-0.000713334
-0.00142199
-0.000752068
-0.00157397
-0.000765104
-0.00174291
-0.000710448
-0.00185625
-0.000563959
-0.00179868
-0.000349083
-0.00147849
-0.000140775
-0.000923106
-2.20812e-05
-0.000335408
-9.14586e-08
-1.38429e-05
0.00043015
-5.79045e-05
0.000860671
-0.000112386
0.00109463
-0.000166404
0.00126843
-0.000215288
0.00140391
-0.000256418
0.00149108
-0.00028848
0.0015234
-0.000311649
0.00150391
-0.000327495
0.00144359
-0.000338454
0.00135739
-0.000347032
0.0012598
-0.000355096
0.00116132
-0.000363555
0.00106716
-0.000372503
0.000978142
-0.000381615
0.000892805
-0.00039052
0.000809284
-0.000399015
0.000726313
-0.000407083
0.00064338
-0.00041483
0.000560454
-0.000422402
0.000477667
-0.000429934
0.000395123
-0.000437532
0.000312846
-0.000445275
0.000230804
-0.000453227
0.000148925
-0.000461442
6.70962e-05
-0.000469961
-1.47775e-05
-0.000478798
-9.68525e-05
-0.000487961
-0.000179217
-0.000497446
-0.000261973
-0.000507244
-0.000345227
-0.000517335
-0.000429089
-0.000527689
-0.000513678
-0.000538246
-0.000599121
-0.000548877
-0.00068554
-0.000559323
-0.000772992
-0.000569101
-0.000861344
-0.000577476
-0.000950078
-0.000583682
-0.00103812
-0.000587739
-0.00112414
-0.00059203
-0.00120804
-0.000602644
-0.00129461
-0.000627231
-0.0013974
-0.000665666
-0.00153554
-0.000697094
-0.00171148
-0.000679401
-0.00187394
-0.000573846
-0.00190424
-0.000382779
-0.00166956
-0.000169494
-0.00113639
-2.9392e-05
-0.00047551
-2.94835e-05
-3.83654e-06
0.000433986
-3.56383e-05
0.000892473
-7.88568e-05
0.00113785
-0.000122301
0.00131188
-0.000161493
0.0014431
-0.000194412
0.001524
-0.000220234
0.00154922
-0.000239308
0.00152299
-0.000253019
0.0014573
-0.000263315
0.00136768
-0.000272065
0.00126855
-0.000280545
0.0011698
-0.000289274
0.00107589
-0.000298202
0.000987071
-0.000307046
0.000901649
-0.000315561
0.0008178
-0.000323663
0.000734415
-0.000331406
0.000651124
-0.000338921
0.00056797
-0.000346347
0.000485093
-0.000353801
0.000402577
-0.000361375
0.000320421
-0.000369139
0.000238569
-0.000377159
0.000156945
-0.000385494
7.54322e-05
-0.000394192
-6.07915e-06
-0.000403269
-8.77757e-05
-0.000412728
-0.000169758
-0.000422559
-0.000252142
-0.000432745
-0.00033504
-0.000443265
-0.000418569
-0.000454091
-0.000502853
-0.00046518
-0.000588031
-0.000476458
-0.000674262
-0.000487762
-0.000761687
-0.000498766
-0.000850339
-0.000508886
-0.000939958
-0.00051727
-0.00102974
-0.000523186
-0.00111822
-0.000527233
-0.001204
-0.000533338
-0.0012885
-0.00054944
-0.0013813
-0.000581864
-0.00150311
-0.000621056
-0.00167229
-0.000631004
-0.00186399
-0.000564399
-0.00197084
-0.000403504
-0.00183045
-0.000194843
-0.00134505
-3.78071e-05
-0.000632547
-6.72906e-05
6.08784e-06
0.000427898
-1.2642e-05
0.000911203
-4.4237e-05
0.00116944
-7.71125e-05
0.00134475
-0.000106933
0.00147292
-0.000132175
0.00154924
-0.000152386
0.00156943
-0.000167949
0.00153855
-0.000179928
0.00146928
-0.000189705
0.00137746
-0.00019852
0.00127736
-0.000207145
0.00117843
-0.000215825
0.00108457
-0.000224462
0.000995708
-0.000232857
0.000910044
-0.000240885
0.000825828
-0.000248548
0.000742078
-0.000255943
0.000658518
-0.000263199
0.000575226
-0.000270442
0.000492336
-0.000277775
0.00040991
-0.000285279
0.000327925
-0.000293022
0.000246312
-0.000301066
0.00016499
-0.000309487
8.38535e-05
-0.000318339
2.77378e-06
-0.000327649
-7.84652e-05
-0.000337418
-0.00015999
-0.000347624
-0.000241934
-0.000358247
-0.000324417
-0.00036926
-0.000407557
-0.000380631
-0.000491481
-0.000392326
-0.000576336
-0.000404291
-0.000662298
-0.000416419
-0.000749559
-0.000428495
-0.000838263
-0.000440098
-0.000928355
-0.000450511
-0.00101933
-0.000458797
-0.00110993
-0.000464486
-0.00119831
-0.000469349
-0.00128364
-0.000479597
-0.00137105
-0.00050428
-0.00147843
-0.000543589
-0.00163298
-0.000571627
-0.00183596
-0.000539026
-0.00200345
-0.000411152
-0.00195832
-0.000215064
-0.00154114
-4.69044e-05
-0.000800707
-0.000114195
1.53231e-05