/*--------------------------------*- C++ -*----------------------------------*\
  =========                 |
  \\      /  F ield         | OpenFOAM: The Open Source CFD Toolbox
   \\    /   O peration     | Website:  https://openfoam.org
    \\  /    A nd           | Version:  7
     \\/     M anipulation  |
\*---------------------------------------------------------------------------*/
FoamFile
{
    version     2.0;
    format      ascii;
    class       volVectorField;
    location    "600";
    object      U;
}
// * * * * * * * * * * * * * * * * * * * * * * * * * * * * * * * * * * * * * //

dimensions      [0 1 -1 0 0 0 0];

internalField   nonuniform List<vector> 
2500
(
(0.000207107 -0.000201878 0)
(0.00186589 -0.000570802 0)
(0.004475 -0.000698595 0)
(0.00716414 -0.000600201 0)
(0.00923015 -0.000419118 0)
(0.0104511 -0.000264421 0)
(0.0109305 -0.000188123 0)
(0.010881 -0.000186041 0)
(0.01045 -0.00022005 0)
(0.00963263 -0.000245592 0)
(0.00827962 -0.000228776 0)
(0.00615844 -0.000150754 0)
(0.00301161 -2.47602e-06 0)
(-0.00140474 0.000221438 0)
(-0.00729541 0.000524136 0)
(-0.0147931 0.000909185 0)
(-0.0239202 0.00137662 0)
(-0.0345469 0.00191485 0)
(-0.0463553 0.00249065 0)
(-0.0588193 0.00304172 0)
(-0.0712104 0.00347823 0)
(-0.0826348 0.0036955 0)
(-0.0921032 0.00359502 0)
(-0.0986323 0.00311146 0)
(-0.101356 0.00223897 0)
(-0.099601 0.0010355 0)
(-0.0930965 -0.000368252 0)
(-0.0819158 -0.00180659 0)
(-0.0665255 -0.0031059 0)
(-0.0477813 -0.00409919 0)
(-0.0269014 -0.00464149 0)
(-0.00536849 -0.00461032 0)
(0.0152912 -0.00394262 0)
(0.0336074 -0.00279231 0)
(0.0482724 -0.00137969 0)
(0.0583285 0.000117387 0)
(0.0633935 0.00148945 0)
(0.0636783 0.00252834 0)
(0.0599873 0.00310793 0)
(0.0534855 0.00322271 0)
(0.0454048 0.00298568 0)
(0.0368492 0.00254968 0)
(0.0286566 0.00204922 0)
(0.0213477 0.00157502 0)
(0.0151532 0.00117489 0)
(0.0100845 0.000864002 0)
(0.00603237 0.000631731 0)
(0.00290325 0.000436438 0)
(0.000796354 0.000193135 0)
(-8.1835e-05 -8.72197e-05 0)
(0.000567002 -0.00182009 0)
(0.00437389 -0.00431915 0)
(0.00958276 -0.00511716 0)
(0.0146041 -0.00444087 0)
(0.0181609 -0.00299782 0)
(0.0197662 -0.00145698 0)
(0.0194586 -0.000191483 0)
(0.0174495 0.00076685 0)
(0.0138235 0.00162705 0)
(0.00839136 0.00266796 0)
(0.000715712 0.00410686 0)
(-0.00976011 0.00604966 0)
(-0.0235655 0.00850051 0)
(-0.0410629 0.0113923 0)
(-0.0623324 0.0145866 0)
(-0.0870663 0.0178575 0)
(-0.114506 0.0208845 0)
(-0.143456 0.023275 0)
(-0.172394 0.0246203 0)
(-0.199639 0.024563 0)
(-0.223533 0.0228561 0)
(-0.242597 0.0194 0)
(-0.255631 0.0142587 0)
(-0.261779 0.00766473 0)
(-0.260566 7.7448e-06 0)
(-0.251924 -0.00819636 0)
(-0.236048 -0.0163769 0)
(-0.213385 -0.0239803 0)
(-0.184701 -0.0304436 0)
(-0.151084 -0.0352328 0)
(-0.113942 -0.0378852 0)
(-0.0749744 -0.038057 0)
(-0.0360891 -0.0356026 0)
(0.000778673 -0.0307038 0)
(0.0337832 -0.0238585 0)
(0.0612468 -0.0157926 0)
(0.0818512 -0.00732711 0)
(0.0948729 0.000655381 0)
(0.100177 0.00731122 0)
(0.0983728 0.0120572 0)
(0.0909155 0.0146947 0)
(0.0795904 0.0154244 0)
(0.0662235 0.0147103 0)
(0.0524137 0.0131061 0)
(0.0393401 0.0111177 0)
(0.0276982 0.00911195 0)
(0.0177775 0.00725081 0)
(0.00968518 0.0054367 0)
(0.00372777 0.00334503 0)
(0.000329582 0.000919487 0)
(0.000785545 -0.00449707 0)
(0.0056892 -0.00969691 0)
(0.0117175 -0.0109177 0)
(0.0169046 -0.00900464 0)
(0.0197591 -0.00542142 0)
(0.0197044 -0.0014661 0)
(0.0166579 0.00215726 0)
(0.0106172 0.0054292 0)
(0.00135621 0.00878929 0)
(-0.0116575 0.0128041 0)
(-0.0291372 0.0178596 0)
(-0.0517108 0.0240325 0)
(-0.0796833 0.0311111 0)
(-0.112824 0.0386313 0)
(-0.150258 0.0459121 0)
(-0.190507 0.0521346 0)
(-0.231683 0.0564747 0)
(-0.271748 0.0582466 0)
(-0.30878 0.057004 0)
(-0.341151 0.0525814 0)
(-0.367626 0.0450784 0)
(-0.38736 0.0348106 0)
(-0.399842 0.0222508 0)
(-0.404811 0.00797904 0)
(-0.402194 -0.00735465 0)
(-0.391967 -0.0230682 0)
(-0.374167 -0.038451 0)
(-0.349063 -0.0527154 0)
(-0.317138 -0.0650262 0)
(-0.279161 -0.0745438 0)
(-0.23622 -0.0804948 0)
(-0.189751 -0.0822691 0)
(-0.141511 -0.0795351 0)
(-0.0935073 -0.0723465 0)
(-0.0478499 -0.0612497 0)
(-0.00653438 -0.0472498 0)
(0.0287158 -0.0316375 0)
(0.0565406 -0.0158611 0)
(0.0762465 -0.00121096 0)
(0.0875617 0.0111162 0)
(0.0907452 0.0202113 0)
(0.0870493 0.0257095 0)
(0.0781788 0.0278415 0)
(0.066023 0.0272961 0)
(0.0523826 0.0249718 0)
(0.0387193 0.0217242 0)
(0.0260343 0.0181239 0)
(0.014969 0.014242 0)
(0.00625727 0.00958594 0)
(0.000705392 0.00358847 0)
(0.000917863 -0.00772882 0)
(0.0060677 -0.0155939 0)
(0.0115434 -0.0165365 0)
(0.0151572 -0.0124475 0)
(0.0154063 -0.00572674 0)
(0.0117319 0.0017088 0)
(0.00390909 0.00895429 0)
(-0.00841179 0.0161191 0)
(-0.0258966 0.0239666 0)
(-0.0493612 0.0332476 0)
(-0.0794424 0.0442414 0)
(-0.116237 0.0566061 0)
(-0.159074 0.0694648 0)
(-0.2065 0.0815939 0)
(-0.256471 0.0916639 0)
(-0.306706 0.0984893 0)
(-0.355028 0.101223 0)
(-0.39963 0.0994432 0)
(-0.439181 0.093138 0)
(-0.472805 0.0826093 0)
(-0.49998 0.0683583 0)
(-0.520407 0.050983 0)
(-0.533894 0.0311123 0)
(-0.540279 0.00938206 0)
(-0.539404 -0.0135465 0)
(-0.531083 -0.036944 0)
(-0.515186 -0.0599648 0)
(-0.491689 -0.0816444 0)
(-0.460696 -0.100916 0)
(-0.422525 -0.11664 0)
(-0.377796 -0.127679 0)
(-0.327521 -0.133033 0)
(-0.27317 -0.132004 0)
(-0.216678 -0.124387 0)
(-0.16036 -0.110613 0)
(-0.106696 -0.0917918 0)
(-0.0580364 -0.069622 0)
(-0.0162534 -0.0461069 0)
(0.0174578 -0.0231617 0)
(0.0425051 -0.0025309 0)
(0.0588278 0.0145482 0)
(0.0666836 0.0271511 0)
(0.0671831 0.0349018 0)
(0.0618809 0.0381404 0)
(0.0525664 0.0377702 0)
(0.041031 0.0349264 0)
(0.028826 0.0305666 0)
(0.0171873 0.0250332 0)
(0.00742056 0.0177426 0)
(0.000862057 0.00736774 0)
(0.000999739 -0.0110195 0)
(0.00560869 -0.0208268 0)
(0.00922241 -0.0203431 0)
(0.00966532 -0.0128922 0)
(0.00559954 -0.00192208 0)
(-0.00349387 0.0101447 0)
(-0.0180804 0.0224086 0)
(-0.0389162 0.035314 0)
(-0.0669354 0.0498008 0)
(-0.102789 0.0663938 0)
(-0.146373 0.0847185 0)
(-0.196609 0.103543 0)
(-0.251557 0.121134 0)
(-0.308766 0.135699 0)
(-0.365729 0.145751 0)
(-0.420269 0.150342 0)
(-0.470742 0.149104 0)
(-0.516064 0.142165 0)
(-0.55561 0.129981 0)
(-0.589055 0.113172 0)
(-0.616243 0.0924098 0)
(-0.637092 0.0683552 0)
(-0.651537 0.0416438 0)
(-0.659501 0.0129018 0)
(-0.660881 -0.0172189 0)
(-0.655543 -0.0479911 0)
(-0.643273 -0.0785579 0)
(-0.623795 -0.107909 0)
(-0.596816 -0.134866 0)
(-0.562104 -0.158073 0)
(-0.519608 -0.176055 0)
(-0.46962 -0.187345 0)
(-0.412949 -0.190687 0)
(-0.351069 -0.185307 0)
(-0.286184 -0.171184 0)
(-0.221129 -0.149246 0)
(-0.15907 -0.121382 0)
(-0.103011 -0.0901955 0)
(-0.0552418 -0.0585399 0)
(-0.016954 -0.0289354 0)
(0.011725 -0.00315965 0)
(0.0311761 0.0175842 0)
(0.0419518 0.0326258 0)
(0.0452556 0.0418099 0)
(0.0426066 0.0456739 0)
(0.0357308 0.0452853 0)
(0.0263911 0.0417533 0)
(0.0162461 0.0355983 0)
(0.00710792 0.0261582 0)
(0.000796257 0.0113841 0)
(0.000995449 -0.013923 0)
(0.00415746 -0.0242895 0)
(0.00457 -0.0208668 0)
(0.000376433 -0.00870865 0)
(-0.009496 0.00768319 0)
(-0.0256103 0.025628 0)
(-0.0487101 0.0445255 0)
(-0.0797759 0.065049 0)
(-0.11952 0.0878538 0)
(-0.167758 0.112624 0)
(-0.22314 0.137903 0)
(-0.283362 0.161535 0)
(-0.345653 0.1813 0)
(-0.407322 0.195421 0)
(-0.466146 0.20283 0)
(-0.520545 0.203182 0)
(-0.569547 0.196704 0)
(-0.612646 0.183977 0)
(-0.64965 0.165744 0)
(-0.680563 0.14279 0)
(-0.705511 0.115867 0)
(-0.724693 0.085677 0)
(-0.738335 0.0528688 0)
(-0.746629 0.0180481 0)
(-0.749682 -0.0181951 0)
(-0.747497 -0.0552463 0)
(-0.739876 -0.0923985 0)
(-0.726383 -0.128773 0)
(-0.706401 -0.163265 0)
(-0.679162 -0.194488 0)
(-0.643871 -0.220773 0)
(-0.599879 -0.240252 0)
(-0.546941 -0.251035 0)
(-0.485501 -0.251522 0)
(-0.416972 -0.240785 0)
(-0.343887 -0.218976 0)
(-0.269817 -0.187607 0)
(-0.19895 -0.149529 0)
(-0.13534 -0.108512 0)
(-0.0819925 -0.0684355 0)
(-0.0402012 -0.0324224 0)
(-0.00959356 -0.00233974 0)
(0.0109972 0.0210786 0)
(0.0227623 0.0375517 0)
(0.0271297 0.0472946 0)
(0.025763 0.0510883 0)
(0.0204522 0.0499264 0)
(0.0130708 0.0443135 0)
(0.00574625 0.0334749 0)
(0.000590664 0.0148937 0)
(0.000839175 -0.0158617 0)
(0.00147714 -0.0247584 0)
(-0.0026112 -0.0166742 0)
(-0.0127119 0.0014777 0)
(-0.0296094 0.0244396 0)
(-0.0539785 0.0496157 0)
(-0.086719 0.076698 0)
(-0.128589 0.106149 0)
(-0.179459 0.137718 0)
(-0.237898 0.169856 0)
(-0.301377 0.200081 0)
(-0.366859 0.225759 0)
(-0.431433 0.244776 0)
(-0.492733 0.255873 0)
(-0.549108 0.258659 0)
(-0.599562 0.25342 0)
(-0.643622 0.24086 0)
(-0.681192 0.221893 0)
(-0.712453 0.197493 0)
(-0.737795 0.168606 0)
(-0.757747 0.136101 0)
(-0.7729 0.100731 0)
(-0.78383 0.0631259 0)
(-0.791017 0.0238053 0)
(-0.794788 -0.0167887 0)
(-0.795294 -0.05825 0)
(-0.792442 -0.100143 0)
(-0.785783 -0.141876 0)
(-0.774571 -0.182612 0)
(-0.757726 -0.221167 0)
(-0.733888 -0.255937 0)
(-0.701552 -0.284895 0)
(-0.659302 -0.305678 0)
(-0.606168 -0.315843 0)
(-0.542076 -0.313278 0)
(-0.468286 -0.296758 0)
(-0.387698 -0.266533 0)
(-0.3048 -0.224744 0)
(-0.225127 -0.175405 0)
(-0.154148 -0.12375 0)
(-0.0958688 -0.0749722 0)
(-0.0517541 -0.0328708 0)
(-0.0207939 0.000796713 0)
(-0.000781066 0.0258917 0)
(0.0102806 0.0427467 0)
(0.0142938 0.0519832 0)
(0.0131942 0.0543974 0)
(0.00900542 0.0503423 0)
(0.00399756 0.0389206 0)
(0.000361902 0.0174902 0)
(0.000463882 -0.0160903 0)
(-0.00258248 -0.0209536 0)
(-0.012304 -0.00658792 0)
(-0.0292636 0.0186965 0)
(-0.0539917 0.0493179 0)
(-0.0872397 0.0829329 0)
(-0.129731 0.119188 0)
(-0.18147 0.157735 0)
(-0.241129 0.197017 0)
(-0.306119 0.234321 0)
(-0.373201 0.2666 0)
(-0.439206 0.291314 0)
(-0.501532 0.306905 0)
(-0.558338 0.312839 0)
(-0.608513 0.30941 0)
(-0.651552 0.297454 0)
(-0.687434 0.278099 0)
(-0.716519 0.25259 0)
(-0.73946 0.222158 0)
(-0.757103 0.187931 0)
(-0.770372 0.150862 0)
(-0.780174 0.111692 0)
(-0.787304 0.0709585 0)
(-0.792403 0.0290227 0)
(-0.79593 -0.0138738 0)
(-0.79815 -0.0575673 0)
(-0.799099 -0.101922 0)
(-0.798475 -0.1467 0)
(-0.795652 -0.19145 0)
(-0.789586 -0.235388 0)
(-0.778775 -0.277265 0)
(-0.76127 -0.315258 0)
(-0.734802 -0.346926 0)
(-0.697075 -0.369311 0)
(-0.646245 -0.379238 0)
(-0.58156 -0.373875 0)
(-0.504031 -0.351508 0)
(-0.416936 -0.312378 0)
(-0.325843 -0.25931 0)
(-0.237909 -0.197729 0)
(-0.160329 -0.134713 0)
(-0.0982878 -0.0771046 0)
(-0.053355 -0.029458 0)
(-0.0236111 0.00680432 0)
(-0.00558536 0.0323985 0)
(0.00359626 0.0482562 0)
(0.00644598 0.0552215 0)
(0.00528231 0.0535697 0)
(0.00248475 0.0423654 0)
(0.000209005 0.0191528 0)
(-0.000173544 -0.0137748 0)
(-0.00797618 -0.0118019 0)
(-0.0241423 0.0102411 0)
(-0.0484687 0.0435522 0)
(-0.081273 0.0826953 0)
(-0.12319 0.125452 0)
(-0.174356 0.170892 0)
(-0.233695 0.217412 0)
(-0.298738 0.262161 0)
(-0.366148 0.301684 0)
(-0.432504 0.332922 0)
(-0.494901 0.353864 0)
(-0.551228 0.36371 0)
(-0.600186 0.362686 0)
(-0.641198 0.351739 0)
(-0.674298 0.332246 0)
(-0.700017 0.305784 0)
(-0.719262 0.27394 0)
(-0.733164 0.238169 0)
(-0.742919 0.199685 0)
(-0.749664 0.159411 0)
(-0.754388 0.117973 0)
(-0.757889 0.0757401 0)
(-0.760771 0.0328842 0)
(-0.763484 -0.0105523 0)
(-0.76633 -0.0546113 0)
(-0.769433 -0.0993869 0)
(-0.772714 -0.144935 0)
(-0.775855 -0.191183 0)
(-0.778175 -0.23782 0)
(-0.778498 -0.28415 0)
(-0.775036 -0.328903 0)
(-0.765334 -0.370058 0)
(-0.746373 -0.404729 0)
(-0.714902 -0.42924 0)
(-0.668063 -0.439489 0)
(-0.604279 -0.43168 0)
(-0.524221 -0.403389 0)
(-0.431571 -0.354766 0)
(-0.33315 -0.289458 0)
(-0.237998 -0.214672 0)
(-0.155257 -0.139816 0)
(-0.0912856 -0.0737141 0)
(-0.0474329 -0.0216078 0)
(-0.0204525 0.0157473 0)
(-0.00548898 0.0400708 0)
(0.00119377 0.0527468 0)
(0.00266782 0.0543643 0)
(0.00160368 0.0441871 0)
(0.000183792 0.0201625 0)
(-0.00107459 -0.00814752 0)
(-0.0144273 0.00344461 0)
(-0.037388 0.0341909 0)
(-0.0690715 0.0761001 0)
(-0.109533 0.124193 0)
(-0.159024 0.17601 0)
(-0.216799 0.229572 0)
(-0.280695 0.28192 0)
(-0.347438 0.329238 0)
(-0.413413 0.367859 0)
(-0.475395 0.395155 0)
(-0.530943 0.409884 0)
(-0.578511 0.412083 0)
(-0.617405 0.402756 0)
(-0.647684 0.38353 0)
(-0.670036 0.356349 0)
(-0.685608 0.323215 0)
(-0.695798 0.285966 0)
(-0.702039 0.246121 0)
(-0.705636 0.204809 0)
(-0.707664 0.16277 0)
(-0.708948 0.120418 0)
(-0.710077 0.0779159 0)
(-0.711454 0.0352607 0)
(-0.713384 -0.00765194 0)
(-0.716118 -0.0509804 0)
(-0.719796 -0.0949206 0)
(-0.724529 -0.139677 0)
(-0.730333 -0.185419 0)
(-0.737021 -0.232226 0)
(-0.744047 -0.279962 0)
(-0.750297 -0.328087 0)
(-0.753872 -0.375393 0)
(-0.751935 -0.41971 0)
(-0.74075 -0.457686 0)
(-0.716051 -0.484799 0)
(-0.673843 -0.49578 0)
(-0.611588 -0.485586 0)
(-0.529567 -0.450873 0)
(-0.431973 -0.391702 0)
(-0.327125 -0.312861 0)
(-0.226239 -0.223931 0)
(-0.140505 -0.137269 0)
(-0.0771453 -0.0639005 0)
(-0.0366143 -0.00937421 0)
(-0.0137977 0.0267549 0)
(-0.00263702 0.0471113 0)
(0.00129788 0.0532234 0)
(0.00144496 0.0450016 0)
(0.000288112 0.0209391 0)
(-0.00218175 0.00133763 0)
(-0.0214368 0.0250726 0)
(-0.0510386 0.0651214 0)
(-0.0895219 0.115807 0)
(-0.136571 0.172676 0)
(-0.191826 0.232618 0)
(-0.253587 0.292376 0)
(-0.318844 0.347824 0)
(-0.383928 0.394656 0)
(-0.445322 0.429455 0)
(-0.500223 0.45032 0)
(-0.546778 0.45691 0)
(-0.584107 0.450168 0)
(-0.612241 0.431925 0)
(-0.63198 0.404508 0)
(-0.644688 0.370379 0)
(-0.652016 0.331818 0)
(-0.655624 0.290698 0)
(-0.656964 0.248377 0)
(-0.657163 0.205711 0)
(-0.657009 0.163143 0)
(-0.656995 0.120824 0)
(-0.657399 0.078725 0)
(-0.658361 0.0367176 0)
(-0.65999 -0.00536801 0)
(-0.66243 -0.0477087 0)
(-0.665785 -0.0904847 0)
(-0.670239 -0.133895 0)
(-0.676012 -0.178172 0)
(-0.683305 -0.223575 0)
(-0.692184 -0.270345 0)
(-0.702381 -0.318575 0)
(-0.713014 -0.367977 0)
(-0.72224 -0.417509 0)
(-0.726965 -0.464923 0)
(-0.722777 -0.506368 0)
(-0.704338 -0.536303 0)
(-0.666388 -0.548001 0)
(-0.605343 -0.53485 0)
(-0.521143 -0.492423 0)
(-0.418742 -0.420877 0)
(-0.308364 -0.326764 0)
(-0.20373 -0.222958 0)
(-0.117993 -0.125478 0)
(-0.0584767 -0.0474466 0)
(-0.0236609 0.00618617 0)
(-0.00620034 0.0377174 0)
(0.000673573 0.0503587 0)
(0.00180782 0.0453346 0)
(0.000485654 0.0218658 0)
(-0.00335953 0.0149131 0)
(-0.0283577 0.0528791 0)
(-0.0639746 0.102406 0)
(-0.108211 0.161585 0)
(-0.160271 0.226421 0)
(-0.21908 0.292852 0)
(-0.282111 0.356364 0)
(-0.345849 0.412032 0)
(-0.406592 0.455524 0)
(-0.461175 0.484025 0)
(-0.507374 0.496553 0)
(-0.544037 0.493785 0)
(-0.571071 0.477637 0)
(-0.589306 0.45079 0)
(-0.600266 0.416196 0)
(-0.605828 0.376647 0)
(-0.607873 0.334439 0)
(-0.608008 0.291212 0)
(-0.607417 0.247954 0)
(-0.606848 0.205131 0)
(-0.60669 0.162852 0)
(-0.607085 0.121034 0)
(-0.608032 0.0795117 0)
(-0.609465 0.0381036 0)
(-0.611339 -0.00335363 0)
(-0.613704 -0.0449889 0)
(-0.61661 -0.0869082 0)
(-0.620204 -0.12922 0)
(-0.624733 -0.172084 0)
(-0.630537 -0.215736 0)
(-0.638011 -0.260512 0)
(-0.647507 -0.306832 0)
(-0.659118 -0.355075 0)
(-0.672313 -0.405299 0)
(-0.685447 -0.456735 0)
(-0.695277 -0.507111 0)
(-0.696733 -0.552009 0)
(-0.683328 -0.58462 0)
(-0.64843 -0.596374 0)
(-0.587389 -0.578752 0)
(-0.500033 -0.526206 0)
(-0.392571 -0.439494 0)
(-0.27774 -0.328041 0)
(-0.1721 -0.209316 0)
(-0.0903036 -0.103628 0)
(-0.0383367 -0.025331 0)
(-0.0113491 0.0228603 0)
(-0.0001617 0.0453304 0)
(0.00229415 0.0453299 0)
(0.000720303 0.023147 0)
(-0.00444404 0.0324252 0)
(-0.0345376 0.086198 0)
(-0.0751392 0.144987 0)
(-0.123712 0.211929 0)
(-0.178919 0.28339 0)
(-0.239004 0.354235 0)
(-0.300859 0.418905 0)
(-0.360792 0.472096 0)
(-0.415342 0.509837 0)
(-0.461874 0.530172 0)
(-0.498861 0.533199 0)
(-0.525955 0.520702 0)
(-0.543892 0.495598 0)
(-0.554257 0.46133 0)
(-0.559096 0.421266 0)
(-0.560499 0.378226 0)
(-0.56024 0.334221 0)
(-0.559586 0.290433 0)
(-0.559275 0.24737 0)
(-0.559617 0.205094 0)
(-0.560641 0.163444 0)
(-0.562238 0.122189 0)
(-0.564248 0.0811114 0)
(-0.566518 0.0400433 0)
(-0.568944 -0.00113152 0)
(-0.571525 -0.0424771 0)
(-0.574284 -0.0840251 0)
(-0.577281 -0.125794 0)
(-0.580675 -0.16783 0)
(-0.584734 -0.21024 0)
(-0.589857 -0.253251 0)
(-0.596587 -0.297265 0)
(-0.605539 -0.342883 0)
(-0.617189 -0.39081 0)
(-0.631434 -0.441532 0)
(-0.646931 -0.494641 0)
(-0.660343 -0.547861 0)
(-0.665915 -0.596042 0)
(-0.655887 -0.63073 0)
(-0.622159 -0.641019 0)
(-0.559151 -0.616155 0)
(-0.467065 -0.549694 0)
(-0.354197 -0.444076 0)
(-0.236617 -0.313373 0)
(-0.133878 -0.181297 0)
(-0.0609136 -0.0724755 0)
(-0.0200679 -0.00025098 0)
(-0.00227695 0.0369024 0)
(0.00246581 0.0446019 0)
(0.000939457 0.0247431 0)
(-0.00528704 0.0533111 0)
(-0.039416 0.12397 0)
(-0.0836753 0.19149 0)
(-0.134961 0.265102 0)
(-0.191397 0.341505 0)
(-0.25068 0.414542 0)
(-0.309394 0.477919 0)
(-0.363944 0.526342 0)
(-0.411302 0.556517 0)
(-0.449483 0.567544 0)
(-0.477738 0.560718 0)
(-0.496546 0.538968 0)
(-0.507405 0.506136 0)
(-0.512441 0.466206 0)
(-0.513916 0.422641 0)
(-0.513787 0.377961 0)
(-0.513443 0.33365 0)
(-0.513657 0.290321 0)
(-0.514698 0.248013 0)
(-0.516519 0.206484 0)
(-0.518928 0.165421 0)
(-0.521707 0.124555 0)
(-0.524676 0.0836925 0)
(-0.527694 0.0427161 0)
(-0.530675 0.00156496 0)
(-0.53362 -0.0397766 0)
(-0.53655 -0.0812962 0)
(-0.539457 -0.122968 0)
(-0.542396 -0.164759 0)
(-0.545482 -0.206662 0)
(-0.548938 -0.24873 0)
(-0.553159 -0.291163 0)
(-0.558767 -0.334406 0)
(-0.566595 -0.379236 0)
(-0.577498 -0.426715 0)
(-0.591841 -0.477822 0)
(-0.608621 -0.532576 0)
(-0.624397 -0.588628 0)
(-0.63259 -0.639784 0)
(-0.623978 -0.675358 0)
(-0.588953 -0.681481 0)
(-0.521363 -0.644964 0)
(-0.422693 -0.559244 0)
(-0.304553 -0.430409 0)
(-0.18724 -0.279808 0)
(-0.0928274 -0.138978 0)
(-0.0339683 -0.0352305 0)
(-0.00651155 0.0231301 0)
(0.00200759 0.0422808 0)
(0.00111568 0.0264039 0)
(-0.00576737 0.0766642 0)
(-0.0425813 0.164861 0)
(-0.0890107 0.240369 0)
(-0.141344 0.319334 0)
(-0.197226 0.398871 0)
(-0.253994 0.471976 0)
(-0.308172 0.53196 0)
(-0.356464 0.573877 0)
(-0.396401 0.595345 0)
(-0.426711 0.596669 0)
(-0.447436 0.580399 0)
(-0.459801 0.550554 0)
(-0.465865 0.511692 0)
(-0.467997 0.468023 0)
(-0.46834 0.422753 0)
(-0.468456 0.377842 0)
(-0.469212 0.334126 0)
(-0.47089 0.291678 0)
(-0.473401 0.250189 0)
(-0.476496 0.209257 0)
(-0.479915 0.168546 0)
(-0.483461 0.127834 0)
(-0.487011 0.0869947 0)
(-0.490487 0.0459669 0)
(-0.493854 0.0047319 0)
(-0.497144 -0.0367033 0)
(-0.500384 -0.078316 0)
(-0.503543 -0.120079 0)
(-0.506612 -0.161941 0)
(-0.509589 -0.203839 0)
(-0.512512 -0.245713 0)
(-0.515521 -0.28756 0)
(-0.518954 -0.329533 0)
(-0.523459 -0.372099 0)
(-0.530049 -0.416209 0)
(-0.539943 -0.463315 0)
(-0.553981 -0.514964 0)
(-0.57148 -0.571615 0)
(-0.588751 -0.630646 0)
(-0.598111 -0.684238 0)
(-0.588607 -0.718598 0)
(-0.549212 -0.716173 0)
(-0.473979 -0.661536 0)
(-0.367136 -0.549773 0)
(-0.245213 -0.393939 0)
(-0.133297 -0.226055 0)
(-0.0540336 -0.0858569 0)
(-0.0133561 0.00159876 0)
(0.000768033 0.037187 0)
(0.00125284 0.0277706 0)
(-0.00580972 0.101351 0)
(-0.0438018 0.20739 0)
(-0.0908829 0.290047 0)
(-0.142693 0.372976 0)
(-0.196503 0.453906 0)
(-0.249478 0.525242 0)
(-0.298283 0.580214 0)
(-0.340058 0.614494 0)
(-0.372953 0.626789 0)
(-0.396413 0.618692 0)
(-0.41119 0.59398 0)
(-0.41908 0.557592 0)
(-0.422429 0.514511 0)
(-0.423538 0.468816 0)
(-0.424184 0.423178 0)
(-0.425404 0.378855 0)
(-0.427564 0.336062 0)
(-0.430578 0.294459 0)
(-0.434166 0.253556 0)
(-0.438033 0.212932 0)
(-0.441963 0.172319 0)
(-0.445839 0.131579 0)
(-0.449618 0.0906575 0)
(-0.453291 0.0495381 0)
(-0.456863 0.0082217 0)
(-0.460394 -0.0332828 0)
(-0.463923 -0.0749622 0)
(-0.467425 -0.11681 0)
(-0.470871 -0.158794 0)
(-0.474214 -0.200856 0)
(-0.477389 -0.242908 0)
(-0.480351 -0.284846 0)
(-0.48314 -0.326598 0)
(-0.486013 -0.368257 0)
(-0.489616 -0.410303 0)
(-0.49512 -0.453875 0)
(-0.504107 -0.500888 0)
(-0.51788 -0.553538 0)
(-0.535962 -0.612668 0)
(-0.554096 -0.674935 0)
(-0.563021 -0.7299 0)
(-0.549764 -0.759427 0)
(-0.502291 -0.741664 0)
(-0.416296 -0.660069 0)
(-0.300896 -0.514877 0)
(-0.17923 -0.331135 0)
(-0.0804867 -0.154843 0)
(-0.0231573 -0.030488 0)
(-0.00128611 0.0279901 0)
(0.00137035 0.0284665 0)
(-0.00539108 0.126128 0)
(-0.0430222 0.250052 0)
(-0.0893122 0.339035 0)
(-0.13922 0.424604 0)
(-0.18976 0.505404 0)
(-0.238095 0.57353 0)
(-0.281178 0.622406 0)
(-0.316653 0.64852 0)
(-0.343293 0.651777 0)
(-0.361194 0.635062 0)
(-0.371665 0.60326 0)
(-0.376835 0.56198 0)
(-0.37906 0.516296 0)
(-0.380337 0.469862 0)
(-0.381952 0.424644 0)
(-0.384438 0.381201 0)
(-0.387779 0.339253 0)
(-0.391694 0.298225 0)
(-0.395861 0.257591 0)
(-0.400041 0.21701 0)
(-0.404111 0.176316 0)
(-0.408041 0.135456 0)
(-0.411855 0.0944265 0)
(-0.415583 0.0532356 0)
(-0.41925 0.0118851 0)
(-0.422928 -0.029626 0)
(-0.426667 -0.0712988 0)
(-0.430453 -0.113151 0)
(-0.434262 -0.155177 0)
(-0.438052 -0.197356 0)
(-0.441741 -0.239626 0)
(-0.445215 -0.28188 0)
(-0.44835 -0.323966 0)
(-0.451088 -0.36574 0)
(-0.453601 -0.407226 0)
(-0.45653 -0.448925 0)
(-0.461219 -0.492229 0)
(-0.469634 -0.539641 0)
(-0.483504 -0.594104 0)
(-0.502307 -0.656636 0)
(-0.520659 -0.722278 0)
(-0.527045 -0.776381 0)
(-0.50633 -0.794923 0)
(-0.446564 -0.751774 0)
(-0.347483 -0.632298 0)
(-0.225832 -0.448013 0)
(-0.112275 -0.242492 0)
(-0.0363905 -0.0761222 0)
(-0.00422843 0.0131907 0)
(0.00145965 0.0280824 0)
(-0.00453635 0.149757 0)
(-0.0403357 0.291408 0)
(-0.0845418 0.386013 0)
(-0.131409 0.473077 0)
(-0.177809 0.552535 0)
(-0.221037 0.616457 0)
(-0.258422 0.658677 0)
(-0.288132 0.676631 0)
(-0.309511 0.671453 0)
(-0.323178 0.647251 0)
(-0.330803 0.609822 0)
(-0.334605 0.565156 0)
(-0.336729 0.51812 0)
(-0.338744 0.471748 0)
(-0.341442 0.427266 0)
(-0.344965 0.384641 0)
(-0.349078 0.343268 0)
(-0.353447 0.302495 0)
(-0.357807 0.261869 0)
(-0.362017 0.221162 0)
(-0.366044 0.180307 0)
(-0.369923 0.139311 0)
(-0.373714 0.0981969 0)
(-0.377461 0.0569758 0)
(-0.381188 0.0156402 0)
(-0.384966 -0.0258243 0)
(-0.38885 -0.0674307 0)
(-0.392834 -0.109214 0)
(-0.396902 -0.151194 0)
(-0.401033 -0.193378 0)
(-0.40517 -0.235753 0)
(-0.409212 -0.278257 0)
(-0.413003 -0.320765 0)
(-0.416353 -0.363075 0)
(-0.419116 -0.404962 0)
(-0.421387 -0.446384 0)
(-0.423835 -0.487905 0)
(-0.42803 -0.531304 0)
(-0.436379 -0.579882 0)
(-0.450939 -0.637407 0)
(-0.470673 -0.704517 0)
(-0.488169 -0.773001 0)
(-0.488903 -0.82163 0)
(-0.455993 -0.81906 0)
(-0.379844 -0.736688 0)
(-0.267787 -0.568206 0)
(-0.146836 -0.345859 0)
(-0.0533707 -0.137514 0)
(-0.00822418 -0.00884182 0)
(0.00147277 0.0261627 0)
(-0.00330829 0.171096 0)
(-0.0359447 0.330164 0)
(-0.0769651 0.429873 0)
(-0.119906 0.517535 0)
(-0.161594 0.594795 0)
(-0.199548 0.653966 0)
(-0.231516 0.689444 0)
(-0.256162 0.699673 0)
(-0.273304 0.686983 0)
(-0.283925 0.65656 0)
(-0.289851 0.614884 0)
(-0.293188 0.56805 0)
(-0.295738 0.520505 0)
(-0.298614 0.474581 0)
(-0.302208 0.430832 0)
(-0.30641 0.38879 0)
(-0.310907 0.347692 0)
(-0.315406 0.306922 0)
(-0.31974 0.266143 0)
(-0.323859 0.225242 0)
(-0.327796 0.184221 0)
(-0.33162 0.143119 0)
(-0.3354 0.101961 0)
(-0.339179 0.0607513 0)
(-0.342973 0.0194669 0)
(-0.346836 -0.0219184 0)
(-0.350835 -0.0634251 0)
(-0.354963 -0.105101 0)
(-0.359207 -0.146977 0)
(-0.363561 -0.189084 0)
(-0.367996 -0.231442 0)
(-0.372452 -0.274043 0)
(-0.376812 -0.316828 0)
(-0.380888 -0.359648 0)
(-0.384429 -0.402242 0)
(-0.387213 -0.444297 0)
(-0.389289 -0.485718 0)
(-0.391415 -0.527237 0)
(-0.395502 -0.571262 0)
(-0.404464 -0.622202 0)
(-0.42045 -0.68457 0)
(-0.441052 -0.757347 0)
(-0.455581 -0.826249 0)
(-0.446017 -0.860448 0)
(-0.395421 -0.821127 0)
(-0.30055 -0.682871 0)
(-0.180629 -0.459277 0)
(-0.0735502 -0.215016 0)
(-0.013519 -0.0398896 0)
(0.00138812 0.0222273 0)
(-0.00179593 0.189166 0)
(-0.0301211 0.365204 0)
(-0.0670559 0.469731 0)
(-0.105422 0.557385 0)
(-0.14207 0.631947 0)
(-0.174795 0.686225 0)
(-0.201772 0.715269 0)
(-0.222093 0.718519 0)
(-0.235933 0.699406 0)
(-0.244469 0.664015 0)
(-0.249499 0.619272 0)
(-0.252882 0.57116 0)
(-0.256022 0.523586 0)
(-0.259634 0.478203 0)
(-0.263828 0.43502 0)
(-0.268374 0.393294 0)
(-0.272973 0.352231 0)
(-0.277419 0.311309 0)
(-0.281634 0.270314 0)
(-0.28564 0.229219 0)
(-0.289501 0.188068 0)
(-0.293294 0.146904 0)
(-0.297088 0.105745 0)
(-0.300919 0.0645789 0)
(-0.304788 0.0233711 0)
(-0.308737 -0.0179156 0)
(-0.31284 -0.0593056 0)
(-0.317095 -0.100856 0)
(-0.321479 -0.142604 0)
(-0.325994 -0.184592 0)
(-0.330628 -0.22686 0)
(-0.335352 -0.269436 0)
(-0.340097 -0.312321 0)
(-0.344735 -0.355452 0)
(-0.349046 -0.398645 0)
(-0.352722 -0.441564 0)
(-0.355477 -0.483794 0)
(-0.357362 -0.525236 0)
(-0.359344 -0.566994 0)
(-0.363844 -0.612525 0)
(-0.374309 -0.667708 0)
(-0.392414 -0.737202 0)
(-0.412951 -0.815655 0)
(-0.420545 -0.878352 0)
(-0.394331 -0.882168 0)
(-0.321233 -0.784514 0)
(-0.210092 -0.575695 0)
(-0.0953338 -0.306594 0)
(-0.0203363 -0.0816251 0)
(0.00124784 0.015793 0)
(-0.000103505 0.203192 0)
(-0.0231714 0.395606 0)
(-0.0553122 0.504915 0)
(-0.0886561 0.592248 0)
(-0.120123 0.663945 0)
(-0.147799 0.713533 0)
(-0.170258 0.736749 0)
(-0.186946 0.733965 0)
(-0.198258 0.709567 0)
(-0.205413 0.670347 0)
(-0.210047 0.62347 0)
(-0.213691 0.574665 0)
(-0.217371 0.527275 0)
(-0.221493 0.482358 0)
(-0.226 0.439527 0)
(-0.230636 0.397896 0)
(-0.235167 0.356712 0)
(-0.239473 0.315572 0)
(-0.243549 0.27436 0)
(-0.247452 0.233108 0)
(-0.251258 0.191873 0)
(-0.255041 0.150691 0)
(-0.25886 0.109565 0)
(-0.262747 0.068469 0)
(-0.266692 0.0273581 0)
(-0.270724 -0.013814 0)
(-0.274928 -0.0550733 0)
(-0.279311 -0.0964862 0)
(-0.283832 -0.138095 0)
(-0.288498 -0.179947 0)
(-0.2933 -0.222092 0)
(-0.298224 -0.264576 0)
(-0.303235 -0.30744 0)
(-0.308259 -0.35069 0)
(-0.313149 -0.394246 0)
(-0.317646 -0.43787 0)
(-0.321385 -0.481117 0)
(-0.324037 -0.52347 0)
(-0.325743 -0.56495 0)
(-0.327868 -0.607422 0)
(-0.333556 -0.656029 0)
(-0.346616 -0.718305 0)
(-0.367025 -0.797153 0)
(-0.384696 -0.877862 0)
(-0.378829 -0.919804 0)
(-0.328901 -0.868027 0)
(-0.232477 -0.688108 0)
(-0.11657 -0.408263 0)
(-0.0286761 -0.135194 0)
(0.00111421 0.00634934 0)
(0.00165934 0.212617 0)
(-0.0154122 0.420639 0)
(-0.0422162 0.534935 0)
(-0.0702531 0.621918 0)
(-0.0965248 0.690869 0)
(-0.119393 0.736241 0)
(-0.137793 0.754446 0)
(-0.151432 0.746672 0)
(-0.160809 0.718096 0)
(-0.167056 0.676024 0)
(-0.171555 0.627707 0)
(-0.17549 0.578555 0)
(-0.179559 0.531388 0)
(-0.183953 0.486793 0)
(-0.188541 0.444119 0)
(-0.193099 0.402429 0)
(-0.197469 0.36105 0)
(-0.201603 0.319683 0)
(-0.20554 0.278288 0)
(-0.209352 0.236925 0)
(-0.213114 0.195652 0)
(-0.216887 0.154487 0)
(-0.220724 0.11342 0)
(-0.224656 0.0724172 0)
(-0.22867 0.0314237 0)
(-0.232774 -0.00961494 0)
(-0.237076 -0.0507248 0)
(-0.241592 -0.0919848 0)
(-0.246263 -0.133441 0)
(-0.251093 -0.175145 0)
(-0.256073 -0.217149 0)
(-0.261194 -0.259511 0)
(-0.266436 -0.30229 0)
(-0.271758 -0.345535 0)
(-0.277071 -0.389248 0)
(-0.282201 -0.433315 0)
(-0.28684 -0.477404 0)
(-0.290564 -0.520924 0)
(-0.293045 -0.56329 0)
(-0.294667 -0.604923 0)
(-0.297473 -0.649158 0)
(-0.305504 -0.703639 0)
(-0.322202 -0.776839 0)
(-0.343579 -0.865211 0)
(-0.352464 -0.936757 0)
(-0.32436 -0.931017 0)
(-0.246269 -0.790655 0)
(-0.13521 -0.514982 0)
(-0.038149 -0.200371 0)
(0.000965339 -0.00657168 0)
(0.00338673 0.217132 0)
(-0.00715223 0.439719 0)
(-0.0282163 0.559449 0)
(-0.0507752 0.646308 0)
(-0.0719131 0.712865 0)
(-0.0902253 0.754693 0)
(-0.104962 0.768835 0)
(-0.11601 0.757151 0)
(-0.123869 0.725423 0)
(-0.129492 0.681309 0)
(-0.133956 0.632045 0)
(-0.138109 0.582723 0)
(-0.142389 0.535726 0)
(-0.146853 0.491299 0)
(-0.151355 0.448632 0)
(-0.15573 0.406797 0)
(-0.15989 0.365203 0)
(-0.163838 0.323636 0)
(-0.167635 0.282103 0)
(-0.171355 0.240675 0)
(-0.175064 0.199399 0)
(-0.178813 0.15828 0)
(-0.18265 0.117297 0)
(-0.18661 0.076408 0)
(-0.190677 0.0355558 0)
(-0.194838 -0.00532348 0)
(-0.199229 -0.0462588 0)
(-0.203885 -0.0873412 0)
(-0.208719 -0.128624 0)
(-0.213734 -0.170161 0)
(-0.21892 -0.21201 0)
(-0.224266 -0.25423 0)
(-0.229756 -0.296889 0)
(-0.235364 -0.340061 0)
(-0.241039 -0.383799 0)
(-0.24667 -0.428088 0)
(-0.252039 -0.472739 0)
(-0.256776 -0.517269 0)
(-0.260407 -0.560914 0)
(-0.262702 -0.603167 0)
(-0.264541 -0.645457 0)
(-0.269019 -0.693737 0)
(-0.280916 -0.758683 0)
(-0.301401 -0.846353 0)
(-0.31919 -0.937416 0)
(-0.309636 -0.973557 0)
(-0.251216 -0.879222 0)
(-0.149774 -0.621629 0)
(-0.048026 -0.275399 0)
(0.000661725 -0.0234131 0)
(0.00493723 0.216549 0)
(0.00130335 0.452504 0)
(-0.0137115 0.578199 0)
(-0.030703 0.665406 0)
(-0.0468006 0.730097 0)
(-0.0607836 0.769189 0)
(-0.0721669 0.780289 0)
(-0.0809499 0.765761 0)
(-0.0875547 0.731815 0)
(-0.0926968 0.686322 0)
(-0.0971266 0.636454 0)
(-0.101388 0.58703 0)
(-0.105715 0.540111 0)
(-0.11009 0.495716 0)
(-0.114391 0.452958 0)
(-0.118517 0.410941 0)
(-0.122436 0.369147 0)
(-0.126185 0.327422 0)
(-0.129831 0.285797 0)
(-0.133444 0.244343 0)
(-0.13708 0.203097 0)
(-0.140783 0.16205 0)
(-0.144596 0.121172 0)
(-0.148562 0.0804208 0)
(-0.152667 0.0397395 0)
(-0.156868 -0.000943851 0)
(-0.161333 -0.0416753 0)
(-0.16613 -0.0825454 0)
(-0.171139 -0.123625 0)
(-0.17636 -0.16497 0)
(-0.18178 -0.206639 0)
(-0.187386 -0.248695 0)
(-0.193163 -0.291207 0)
(-0.199092 -0.334263 0)
(-0.205136 -0.377948 0)
(-0.211225 -0.422311 0)
(-0.217211 -0.467283 0)
(-0.222817 -0.512539 0)
(-0.227604 -0.557381 0)
(-0.23109 -0.600898 0)
(-0.233329 -0.643089 0)
(-0.236114 -0.687572 0)
(-0.243888 -0.744418 0)
(-0.261016 -0.82597 0)
(-0.282649 -0.926734 0)
(-0.287377 -0.997572 0)
(-0.248088 -0.95156 0)
(-0.159525 -0.72371 0)
(-0.0574766 -0.357521 0)
(-5.54564e-06 -0.0445988 0)
(0.00615628 0.211101 0)
(0.0095916 0.458554 0)
(0.000974081 0.591096 0)
(-0.0104359 0.679221 0)
(-0.0215932 0.742719 0)
(-0.0314227 0.77996 0)
(-0.0396666 0.789064 0)
(-0.046386 0.772726 0)
(-0.0518775 0.737409 0)
(-0.0565842 0.691087 0)
(-0.0609307 0.640858 0)
(-0.0651858 0.591343 0)
(-0.0694257 0.544402 0)
(-0.0735977 0.499932 0)
(-0.0776197 0.457023 0)
(-0.0814492 0.414821 0)
(-0.0851015 0.372862 0)
(-0.0886308 0.331024 0)
(-0.0921045 0.289351 0)
(-0.0955845 0.247909 0)
(-0.0991203 0.206721 0)
(-0.102751 0.165772 0)