/*--------------------------------*- C++ -*----------------------------------*\
  =========                 |
  \\      /  F ield         | OpenFOAM: The Open Source CFD Toolbox
   \\    /   O peration     | Website:  https://openfoam.org
    \\  /    A nd           | Version:  7
     \\/     M anipulation  |
\*---------------------------------------------------------------------------*/
FoamFile
{
    version     2.0;
    format      ascii;
    class       volScalarField;
    location    "1650";
    object      p;
}
// * * * * * * * * * * * * * * * * * * * * * * * * * * * * * * * * * * * * * //

dimensions      [0 2 -2 0 0 0 0];

internalField   nonuniform List<scalar> 
2500
(
1.78291e-07
7.11065e-05
-8.81125e-06
-0.000307618
-0.000782005
-0.00136954
-0.00203004
-0.00275897
-0.00358202
-0.00453986
-0.00567256
-0.00700999
-0.00856906
-0.0103495
-0.0123279
-0.0144501
-0.016624
-0.018718
-0.0205671
-0.0219894
-0.0228101
-0.0228899
-0.0221534
-0.0206172
-0.0184071
-0.0157496
-0.0129659
-0.0104737
-0.00873463
-0.00818638
-0.0091617
-0.0117971
-0.0159801
-0.021415
-0.0276422
-0.0341
-0.0402599
-0.0457211
-0.0502527
-0.0537799
-0.0563526
-0.058106
-0.0592145
-0.0598542
-0.060177
-0.0602989
-0.060298
-0.0602166
-0.0600773
-0.0599381
-6.90114e-05
3.80481e-06
-7.99965e-05
-0.000376447
-0.000828831
-0.00137299
-0.0019738
-0.0026327
-0.00337827
-0.00425083
-0.0052892
-0.00652333
-0.00797391
-0.00964869
-0.011536
-0.0135991
-0.0157672
-0.0179286
-0.0199306
-0.0215895
-0.0227129
-0.023131
-0.0227301
-0.0214859
-0.0194936
-0.0169701
-0.0142527
-0.0117768
-0.010023
-0.00944816
-0.0104006
-0.0130394
-0.0172801
-0.0227731
-0.0290161
-0.035461
-0.0415535
-0.0468528
-0.05112
-0.0543282
-0.0565954
-0.058103
-0.0590448
-0.0595932
-0.0598847
-0.0600164
-0.0600502
-0.0600156
-0.0599141
-0.0597824
-1.90276e-05
4.96671e-05
-5.72451e-05
-0.000379713
-0.000832121
-0.00133871
-0.0018693
-0.00243669
-0.00308194
-0.00385259
-0.00479275
-0.00594279
-0.00734072
-0.009021
-0.0110036
-0.0132774
-0.0157821
-0.018396
-0.0209368
-0.023178
-0.0248805
-0.0258304
-0.0258762
-0.0249669
-0.0231948
-0.0207873
-0.0180816
-0.0155111
-0.0135686
-0.0127343
-0.0133899
-0.0157335
-0.0197197
-0.0250467
-0.0312054
-0.0375746
-0.0435766
-0.0487693
-0.0528722
-0.05582
-0.0577431
-0.0588871
-0.0595056
-0.0598033
-0.0599247
-0.0599595
-0.0599542
-0.0599187
-0.0598228
-0.0596785
0.000228177
0.000266241
0.0001018
-0.000279504
-0.000755304
-0.00123663
-0.00170254
-0.00218512
-0.00274542
-0.00345451
-0.00438575
-0.00561862
-0.00723794
-0.0093207
-0.0119098
-0.0149851
-0.0184436
-0.0220969
-0.0256893
-0.0289301
-0.031535
-0.0332646
-0.0339539
-0.0335394
-0.0320932
-0.0298181
-0.0270261
-0.0241384
-0.0216501
-0.0200677
-0.0198287
-0.0212123
-0.0242673
-0.0287806
-0.0343014
-0.0402267
-0.0459342
-0.0509048
-0.0548435
-0.0576607
-0.0594075
-0.060296
-0.0606072
-0.0606014
-0.0604628
-0.0603012
-0.0601669
-0.060061
-0.059931
-0.0597662
0.000707463
0.000677355
0.000418174
-4.40022e-05
-0.000555212
-0.00102911
-0.00146019
-0.00190842
-0.00247448
-0.00328032
-0.00446295
-0.00617021
-0.00854133
-0.0116719
-0.0155763
-0.0201638
-0.025238
-0.030518
-0.0356735
-0.0403634
-0.0442734
-0.0471458
-0.0488023
-0.0491588
-0.048245
-0.046206
-0.043307
-0.0399337
-0.0365581
-0.0336952
-0.031837
-0.0313716
-0.0325007
-0.0351807
-0.0391112
-0.0437868
-0.0486076
-0.0530127
-0.0566025
-0.0591898
-0.0608084
-0.0616147
-0.0618
-0.0616147
-0.0612777
-0.0609325
-0.0606525
-0.0604509
-0.0602746
-0.0600977
0.00146261
0.00132859
0.000949213
0.000397592
-0.00016857
-0.000675092
-0.00114663
-0.00169601
-0.00249248
-0.00374216
-0.00567069
-0.00849214
-0.0123622
-0.017332
-0.0233216
-0.0301231
-0.0374272
-0.0448623
-0.0520352
-0.058566
-0.0641172
-0.068418
-0.071281
-0.0726076
-0.0723952
-0.070728
-0.0678048
-0.0639464
-0.0595601
-0.0551214
-0.0511334
-0.0480673
-0.0462887
-0.0459835
-0.0471054
-0.049371
-0.0523175
-0.0554152
-0.0581973
-0.060354
-0.0617652
-0.0624796
-0.0626612
-0.062473
-0.0620864
-0.0616606
-0.0612948
-0.0610264
-0.060821
-0.0606496
0.00253208
0.00226928
0.00176049
0.00110897
0.000452035
-0.000167199
-0.000836846
-0.00175255
-0.00318374
-0.00544051
-0.00882483
-0.013566
-0.0197609
-0.0273429
-0.0360872
-0.0456457
-0.0555941
-0.0654791
-0.0748586
-0.0833327
-0.090566
-0.0963029
-0.100371
-0.102679
-0.103222
-0.102051
-0.0992922
-0.0951798
-0.0900158
-0.0841741
-0.078087
-0.0722202
-0.0670312
-0.0629094
-0.0601069
-0.0586806
-0.0584718
-0.0591419
-0.0602635
-0.0614349
-0.0623681
-0.0629239
-0.0631012
-0.062988
-0.0626882
-0.0623132
-0.0619626
-0.0616938
-0.0614981
-0.0613529
0.00392227
0.00352334
0.00288431
0.0021106
0.00129536
0.000410843
-0.0007282
-0.00243092
-0.00508236
-0.0090766
-0.0147292
-0.0221965
-0.0314316
-0.0421902
-0.0540732
-0.0665871
-0.0792049
-0.0914169
-0.102768
-0.11288
-0.121466
-0.128327
-0.133339
-0.136438
-0.137643
-0.137016
-0.134627
-0.130622
-0.125183
-0.118545
-0.110992
-0.102877
-0.09461
-0.0866496
-0.0794558
-0.0734286
-0.0688322
-0.0657304
-0.0639659
-0.0632063
-0.0630476
-0.063129
-0.0632059
-0.0631716
-0.0630222
-0.0627992
-0.0625654
-0.0623745
-0.0622343
-0.0621336
0.00557846
0.0050503
0.00427604
0.00333765
0.00223957
0.000843586
-0.00116244
-0.00421448
-0.00878989
-0.015297
-0.0239657
-0.0347814
-0.047483
-0.0616127
-0.076593
-0.0918071
-0.106667
-0.12066
-0.133379
-0.144523
-0.153897
-0.161391
-0.166944
-0.170539
-0.172222
-0.172087
-0.17018
-0.166579
-0.16137
-0.154655
-0.146558
-0.137252
-0.126983
-0.116098
-0.105062
-0.0944458
-0.0848686
-0.0768897
-0.0708704
-0.0668617
-0.0645852
-0.0635432
-0.0632018
-0.0631467
-0.0631473
-0.0631277
-0.0630831
-0.0630362
-0.0629912
-0.0629461
0.00735025
0.00670705
0.00578641
0.0046014
0.00302329
0.000773223
-0.00260085
-0.00763979
-0.0148432
-0.0245284
-0.0367317
-0.0511873
-0.0673795
-0.0846375
-0.10224
-0.119509
-0.135867
-0.150877
-0.164237
-0.175766
-0.185376
-0.193048
-0.198788
-0.202613
-0.204587
-0.204834
-0.20339
-0.200299
-0.195592
-0.189288
-0.181398
-0.171936
-0.160952
-0.148575
-0.13508
-0.120946
-0.106881
-0.0937774
-0.0825578
-0.0739293
-0.0681417
-0.0648943
-0.0634855
-0.0631242
-0.0631994
-0.063381
-0.0635611
-0.063699
-0.0637741
-0.0637887
0.00897965
0.00824041
0.0071379
0.0055733
0.00324953
-0.00026641
-0.00554989
-0.0131832
-0.0235843
-0.0368659
-0.0527828
-0.0707745
-0.0900757
-0.109851
-0.129313
-0.147813
-0.164874
-0.180193
-0.193608
-0.20506
-0.214557
-0.222143
-0.227869
-0.231773
-0.233917
-0.23443
-0.233345
-0.230693
-0.226492
-0.220733
-0.213379
-0.204362
-0.193596
-0.181014
-0.166633
-0.150651
-0.133562
-0.116233
-0.0998754
-0.0858256
-0.0751549
-0.0682569
-0.0646875
-0.063419
-0.0633466
-0.0636898
-0.0640885
-0.0644242
-0.0646292
-0.064704
0.0101132
0.00928282
0.00793132
0.00580985
0.00243376
-0.00277329
-0.0104592
-0.0211532
-0.0350784
-0.0520503
-0.0714941
-0.0925612
-0.114293
-0.135781
-0.156279
-0.175256
-0.192398
-0.20756
-0.220713
-0.231892
-0.241163
-0.248602
-0.254271
-0.25821
-0.260472
-0.261168
-0.260322
-0.257968
-0.254124
-0.248791
-0.241934
-0.233476
-0.223291
-0.211213
-0.197073
-0.180782
-0.162461
-0.142627
-0.12233
-0.103149
-0.0868796
-0.0749372
-0.0677389
-0.0645207
-0.0638046
-0.0641709
-0.0647664
-0.0652944
-0.0656315
-0.0657696
0.0103221
0.00938637
0.00769476
0.00481754
8.69283e-05
-0.00717988
-0.0176259
-0.0316224
-0.0491031
-0.0695322
-0.0920088
-0.115455
-0.138817
-0.161224
-0.182065
-0.20099
-0.217861
-0.232673
-0.245493
-0.256406
-0.265498
-0.272844
-0.2785
-0.282495
-0.284863
-0.285696
-0.285004
-0.282821
-0.279173
-0.274072
-0.267511
-0.259441
-0.249764
-0.238316
-0.224872
-0.209175
-0.191036
-0.170506
-0.148139
-0.125218
-0.103759
-0.0860542
-0.0737814
-0.0671654
-0.0648885
-0.0649333
-0.065678
-0.0663902
-0.0668677
-0.067081
0.00916162
0.00809514
0.00596166
0.00214138
-0.00419014
-0.013765
-0.0271332
-0.0444161
-0.0651988
-0.0885896
-0.113415
-0.138463
-0.162699
-0.185387
-0.206109
-0.224708
-0.241193
-0.255658
-0.268215
-0.278962
-0.287976
-0.295315
-0.301018
-0.3051
-0.307577
-0.308524
-0.307941
-0.305857
-0.302298
-0.297287
-0.290834
-0.282927
-0.273518
-0.262502
-0.249693
-0.23482
-0.217549
-0.197593
-0.174945
-0.150235
-0.125068
-0.102
-0.083829
-0.0723045
-0.0671174
-0.0661428
-0.0668742
-0.0677787
-0.0684209
-0.0687347
0.00625511
0.00502548
0.00235785
-0.00254728
-0.0106279
-0.0225989
-0.0388361
-0.0591491
-0.0827585
-0.108458
-0.134889
-0.160818
-0.185326
-0.207871
-0.228238
-0.246432
-0.262565
-0.276776
-0.289182
-0.299868
-0.308889
-0.31628
-0.322064
-0.326246
-0.328829
-0.329876
-0.329385
-0.327374
-0.323866
-0.318882
-0.312441
-0.304552
-0.295206
-0.284364
-0.271921
-0.257683
-0.241336
-0.222469
-0.200699
-0.175981
-0.149104
-0.12214
-0.0983172
-0.0808651
-0.0712321
-0.0681105
-0.0684274
-0.0695212
-0.0703641
-0.0708208
0.00136338
-6.00441e-05
-0.00332555
-0.00938723
-0.0192447
-0.0335319
-0.0523912
-0.0752947
-0.101125
-0.128434
-0.155783
-0.18201
-0.206379
-0.228553
-0.248496
-0.266321
-0.282193
-0.296252
-0.308598
-0.319289
-0.328357
-0.335819
-0.341688
-0.345962
-0.348637
-0.349771
-0.349362
-0.347421
-0.343964
-0.339007
-0.332565
-0.324652
-0.315279
-0.304446
-0.292123
-0.278217
-0.262523
-0.244684
-0.224199
-0.200586
-0.173808
-0.144962
-0.116816
-0.0933846
-0.0780607
-0.071361
-0.0705026
-0.071683
-0.0727742
-0.0734299
-0.00556663
-0.00720497
-0.0110915
-0.0183019
-0.0298444
-0.0462223
-0.0673133
-0.0922625
-0.119671
-0.147939
-0.175639
-0.201753
-0.225744
-0.247466
-0.267006
-0.28454
-0.300237
-0.314218
-0.326553
-0.337272
-0.346389
-0.353911
-0.359847
-0.364191
-0.366939
-0.368144
-0.36781
-0.365939
-0.362544
-0.357634
-0.351218
-0.343306
-0.33391
-0.323044
-0.310717
-0.296916
-0.281559
-0.264425
-0.245097
-0.22296
-0.197435
-0.168592
-0.138097
-0.109719
-0.0882373
-0.0765708
-0.0734184
-0.0743666
-0.075765
-0.0766686
-0.0143873
-0.0162475
-0.020735
-0.0290126
-0.0420504
-0.0601904
-0.0830433
-0.109466
-0.13785
-0.166534
-0.194168
-0.219913
-0.24342
-0.264689
-0.283885
-0.301201
-0.316785
-0.330724
-0.343059
-0.353799
-0.362947
-0.370505
-0.376482
-0.380875
-0.383678
-0.384938
-0.384668
-0.382864
-0.379536
-0.37469
-0.368331
-0.360462
-0.35109
-0.340224
-0.327886
-0.314099
-0.298867
-0.282113
-0.263589
-0.24278
-0.218923
-0.19137
-0.160514
-0.129006
-0.101921
-0.0843845
-0.077635
-0.0777329
-0.0794603
-0.0806489
-0.0247708
-0.026844
-0.031875
-0.0410823
-0.0553608
-0.0748816
-0.0990098
-0.12637
-0.15522
-0.183905
-0.2112
-0.236442
-0.259442
-0.2803
-0.299213
-0.316362
-0.331863
-0.345768
-0.358092
-0.368834
-0.377989
-0.385561
-0.391558
-0.395982
-0.398823
-0.400125
-0.399908
-0.398164
-0.394901
-0.390126
-0.38384
-0.376045
-0.366742
-0.355933
-0.343634
-0.329873
-0.314693
-0.298114
-0.280055
-0.260206
-0.237902
-0.212197
-0.182483
-0.149895
-0.118663
-0.0951792
-0.0836583
-0.0820122
-0.0839658
-0.0854837
-0.0362555
-0.0385182
-0.0440082
-0.0539746
-0.0692109
-0.0897254
-0.114676
-0.142515
-0.171437
-0.199839
-0.226639
-0.251331
-0.273848
-0.294345
-0.313024
-0.330035
-0.34546
-0.359323
-0.371621
-0.382344
-0.391488
-0.399056
-0.405059
-0.4095
-0.41237
-0.413703
-0.41353
-0.411837
-0.408633
-0.403925
-0.397715
-0.390007
-0.380798
-0.370089
-0.357885
-0.344207
-0.329099
-0.312625
-0.294819
-0.275575
-0.254463
-0.230592
-0.202831
-0.170926
-0.137497
-0.108898
-0.0919167
-0.087498
-0.0893719
-0.0912926
-0.0483057
-0.0507214
-0.056571
-0.0671154
-0.0830297
-0.104181
-0.129566
-0.157527
-0.186241
-0.21419
-0.240428
-0.264578
-0.286655
-0.30684
-0.325317
-0.342205
-0.357552
-0.37136
-0.383615
-0.394306
-0.403426
-0.410981
-0.416982
-0.421432
-0.424323
-0.425678
-0.425541
-0.42389
-0.420737
-0.416088
-0.409951
-0.402327
-0.39322
-0.38263
-0.370558
-0.357016
-0.342037
-0.325686
-0.308053
-0.289177
-0.26888
-0.246526
-0.22091
-0.190854
-0.157177
-0.125014
-0.102608
-0.0944703
-0.0957714
-0.0981878
-0.0603709
-0.0628927
-0.0689981
-0.0799459
-0.0962845
-0.11777
-0.143284
-0.171108
-0.199441
-0.226856
-0.252527
-0.276173
-0.297861
-0.317773
-0.336071
-0.352842
-0.368105
-0.381849
-0.394053
-0.404704
-0.413796
-0.421334
-0.427327
-0.431783
-0.43469
-0.43606
-0.435952
-0.434336
-0.431224
-0.426626
-0.42055
-0.413003
-0.403992
-0.393521
-0.381594
-0.368219
-0.353416
-0.33724
-0.319787
-0.301172
-0.281416
-0.260187
-0.23651
-0.208831
-0.176469
-0.142626
-0.115585
-0.103121
-0.103273
-0.106226
-0.0719364
-0.0745134
-0.0807694
-0.0919635
-0.108511
-0.130088
-0.155506
-0.183027
-0.210891
-0.237758
-0.262896
-0.286094
-0.307443
-0.327119
-0.345255
-0.361912
-0.377091
-0.390767
-0.402917
-0.413527
-0.422592
-0.430112
-0.436098
-0.440556
-0.443476
-0.444855
-0.444771
-0.443182
-0.440103
-0.435544
-0.429518
-0.422035
-0.413107
-0.402745
-0.390956
-0.377753
-0.363151
-0.347192
-0.32996
-0.311592
-0.292226
-0.271798
-0.249684
-0.22441
-0.194352
-0.160642
-0.130331
-0.113463
-0.111932
-0.115347
-0.0825833
-0.0851214
-0.0914443
-0.102746
-0.119326
-0.140813
-0.165986
-0.193112
-0.220482
-0.246831
-0.271496
-0.29431
-0.315371
-0.334841
-0.352833
-0.369383
-0.38448
-0.398091
-0.410192
-0.420767
-0.429808
-0.437316
-0.443295
-0.447756
-0.450685
-0.452071
-0.452005
-0.450435
-0.447379
-0.442849
-0.436859
-0.429424
-0.420561
-0.410287
-0.39862
-0.385575
-0.371173
-0.355449
-0.338473
-0.320377
-0.301347
-0.281505
-0.260581
-0.237438
-0.210109
-0.177976
-0.146038
-0.125252
-0.121652
-0.12531
-0.0919939
-0.0943393
-0.100662
-0.111965
-0.128439
-0.149705
-0.174537
-0.201233
-0.228131
-0.254022
-0.278288
-0.300783
-0.321605
-0.340902
-0.358767
-0.375222
-0.390246
-0.403803
-0.415865
-0.426414
-0.435442
-0.442943
-0.448922
-0.453385
-0.456323
-0.457716
-0.45766
-0.456103
-0.45306
-0.448546
-0.442575
-0.435169
-0.426348
-0.416139
-0.404565
-0.391653
-0.37743
-0.361932
-0.345223
-0.327422
-0.308725
-0.289356
-0.269326
-0.247928
-0.223315
-0.193692
-0.161734
-0.137961
-0.132088
-0.135692
-0.0999197
-0.101937
-0.108152
-0.119378
-0.135644
-0.156592
-0.181033
-0.207301
-0.233777
-0.259286
-0.283233
-0.305476
-0.326108
-0.345264
-0.363023
-0.3794
-0.394367
-0.407886
-0.419924
-0.430461
-0.439487
-0.446994
-0.452979
-0.457449
-0.460397
-0.461801
-0.46175
-0.460201
-0.45716
-0.452646
-0.446677
-0.439276
-0.430471
-0.420294
-0.40878
-0.395964
-0.381883
-0.366581
-0.350122
-0.332616
-0.314255
-0.295307
-0.275972
-0.255943
-0.233764
-0.207085
-0.176436
-0.150838
-0.142698
-0.145953
-0.106194
-0.107795
-0.113759
-0.124833
-0.140822
-0.161393
-0.185416
-0.211275
-0.237386
-0.262593
-0.286299
-0.308355
-0.328843
-0.347889
-0.365569
-0.381889
-0.396819
-0.410319
-0.422353
-0.432898
-0.441938
-0.449463
-0.455468
-0.459952
-0.462912
-0.464328
-0.464279
-0.462735
-0.459686
-0.455159
-0.449172
-0.441752
-0.432932
-0.422752
-0.411255
-0.398488
-0.3845
-0.369345
-0.353093
-0.335855
-0.317817
-0.299259
-0.280491
-0.261522
-0.241381
-0.217682
-0.189275
-0.163038
-0.152844
-0.155522
-0.11075
-0.111877
-0.117442
-0.12827
-0.143921
-0.164062
-0.187643
-0.21311
-0.238913
-0.263898
-0.287449
-0.309394
-0.329797
-0.348775
-0.366402
-0.38269
-0.397607
-0.411111
-0.423164
-0.433736
-0.442808
-0.450366
-0.456398
-0.4609
-0.463868
-0.465288
-0.465236
-0.463695
-0.460631
-0.456075
-0.450052
-0.442589
-0.433723
-0.423502
-0.41198
-0.399212
-0.385259
-0.370187
-0.35408
-0.337054
-0.319295
-0.301089
-0.282802
-0.26466
-0.246151
-0.225201
-0.19956
-0.173742
-0.161895
-0.163858
-0.113615
-0.114236
-0.119267
-0.129736
-0.144984
-0.16464
-0.18774
-0.212809
-0.238333
-0.263152
-0.286614
-0.308511
-0.328882
-0.347837
-0.365451
-0.38174
-0.396678
-0.410219
-0.422324
-0.432957
-0.442094
-0.449716
-0.455807
-0.460358
-0.463363
-0.464805
-0.464729
-0.463158
-0.460044
-0.455422
-0.449321
-0.441774
-0.432827
-0.422526
-0.410932
-0.398109
-0.384129
-0.369071
-0.353032
-0.336141
-0.318591
-0.300676
-0.282793
-0.265301
-0.248066
-0.229495
-0.2068
-0.18224
-0.16928
-0.170479
-0.114897
-0.115015
-0.119389
-0.129359
-0.144119
-0.163219
-0.185783
-0.210425
-0.235675
-0.26036
-0.283784
-0.305689
-0.32608
-0.345055
-0.362692
-0.379015
-0.394003
-0.407612
-0.419798
-0.430522
-0.439752
-0.447462
-0.453633
-0.458251
-0.461307
-0.462789
-0.462715
-0.461124
-0.457959
-0.453261
-0.447063
-0.439398
-0.430311
-0.419863
-0.408121
-0.395165
-0.38108
-0.365957
-0.349901
-0.333053
-0.315622
-0.297913
-0.280346
-0.263363
-0.247106
-0.230493
-0.210671
-0.187959
-0.174501
-0.174968
-0.114773
-0.114424
-0.118045
-0.127343
-0.141491
-0.15994
-0.181881
-0.206032
-0.230977
-0.255533
-0.278952
-0.30091
-0.321371
-0.340412
-0.358114
-0.374508
-0.389581
-0.403294
-0.415597
-0.426446
-0.435801
-0.443632
-0.449911
-0.454619
-0.457742
-0.459269
-0.459202
-0.457591
-0.454368
-0.449577
-0.443257
-0.435444
-0.426186
-0.415547
-0.403604
-0.390441
-0.376154
-0.360848
-0.344653
-0.327734
-0.310314
-0.292706
-0.275353
-0.25875
-0.243233
-0.228172
-0.210983
-0.190469
-0.177133
-0.17696
-0.113471
-0.112726
-0.115532
-0.123963
-0.13733
-0.154995
-0.176188
-0.199735
-0.224296
-0.248686
-0.272099
-0.294141
-0.314716
-0.333872
-0.351685
-0.368194
-0.383396
-0.397253
-0.409715
-0.42073
-0.430252
-0.43824
-0.44466
-0.449486
-0.452699
-0.454284
-0.454231
-0.452598
-0.449312
-0.444413
-0.437947
-0.429951
-0.420477
-0.409593
-0.397381
-0.383935
-0.36936
-0.353776
-0.337325
-0.320191
-0.302626
-0.284983
-0.267726
-0.251376
-0.236398
-0.222521
-0.207636
-0.189461
-0.176806
-0.17613
-0.111256
-0.110214
-0.112189
-0.119557
-0.131926
-0.148626
-0.168899
-0.191678
-0.215714
-0.239845
-0.263213
-0.285343
-0.306065
-0.325385
-0.343362
-0.360039
-0.375419
-0.38947
-0.402139
-0.413368
-0.423102
-0.431291
-0.437891
-0.44287
-0.446199
-0.447861
-0.44784
-0.446185
-0.442834
-0.437817
-0.431182
-0.42297
-0.413235
-0.402049
-0.389499
-0.375686
-0.360724
-0.344746
-0.327911
-0.310428
-0.292576
-0.274738
-0.25742
-0.241178
-0.226561
-0.213542
-0.200592
-0.184729
-0.173198
-0.17218
-0.108406
-0.107181
-0.108363
-0.1145
-0.125622
-0.141122
-0.160252
-0.18204
-0.205349
-0.229063
-0.252292
-0.274477
-0.295362
-0.314891
-0.333093
-0.350001
-0.365622
-0.379926
-0.392859
-0.404358
-0.414357
-0.422797
-0.429624
-0.434795
-0.438276
-0.440042
-0.440074
-0.438404
-0.434991
-0.429848
-0.423024
-0.414565
-0.404526
-0.392981
-0.380021
-0.365753
-0.350299
-0.333804
-0.316447
-0.298462
-0.280162
-0.261969
-0.244434
-0.228151
-0.213715
-0.201256
-0.18986
-0.176153
-0.166023
-0.16483
-0.105189
-0.103895
-0.104372
-0.109174
-0.118796
-0.132816
-0.150526
-0.171042
-0.193352
-0.21642
-0.239349
-0.261507
-0.282543
-0.302319
-0.32081
-0.338027
-0.353966
-0.368599
-0.381868
-0.393704
-0.404033
-0.412783
-0.419891
-0.425304
-0.428978
-0.430881
-0.43099
-0.429321
-0.425853
-0.420581
-0.413553
-0.404819
-0.394434
-0.382474
-0.369031
-0.354216
-0.33816
-0.321021
-0.302998
-0.284351
-0.265433
-0.246713
-0.228793
-0.212317
-0.197921
-0.185738
-0.1755
-0.163692
-0.155034
-0.153807
-0.101841
-0.100573
-0.10048
-0.103936
-0.111845
-0.124075
-0.140032
-0.158936
-0.179908
-0.202023
-0.224418
-0.246407
-0.267542
-0.287583
-0.30643
-0.324044
-0.340401
-0.355459
-0.369155
-0.381413
-0.392149
-0.401282
-0.408736
-0.414447
-0.418364
-0.420446
-0.420663
-0.41902
-0.415508
-0.410108
-0.402865
-0.393832
-0.383063
-0.370632
-0.356633
-0.34118
-0.324412
-0.306499
-0.287661
-0.268192
-0.248485
-0.229064
-0.210586
-0.19375
-0.179246
-0.167134
-0.15764
-0.147388
-0.140044
-0.138854
-0.0985466
-0.0973751
-0.0968739
-0.0990768
-0.105144
-0.115285
-0.129115
-0.146005
-0.165234
-0.186018
-0.207564
-0.229169
-0.250296
-0.270592
-0.289852
-0.307965
-0.324858
-0.340463
-0.354703
-0.36749
-0.378731
-0.388333
-0.396211
-0.402291
-0.406509
-0.408819
-0.409185
-0.407598
-0.404061
-0.39854
-0.391077
-0.381725
-0.370536
-0.357582
-0.342958
-0.326778
-0.309189
-0.290375
-0.27058
-0.250132
-0.229474
-0.209185
-0.189984
-0.172624
-0.157831
-0.145652
-0.13648
-0.127364
-0.120951
-0.119742
-0.0954371
-0.0944019
-0.0936617
-0.0947978
-0.0990166
-0.106824
-0.118137
-0.13256
-0.149578
-0.168583
-0.188893
-0.209824
-0.230772
-0.251266
-0.270978
-0.289689
-0.307252
-0.323552
-0.338481
-0.351933
-0.363801
-0.373981
-0.382379
-0.388909
-0.393501
-0.396099
-0.396662
-0.395168
-0.391632
-0.386004
-0.378322
-0.368636
-0.356998
-0.343476
-0.328162
-0.311174
-0.292664
-0.272834
-0.251951
-0.230384
-0.208626
-0.187319
-0.167244
-0.1492
-0.133942
-0.121523
-0.112285
-0.103805
-0.0977449
-0.0962338
-0.09259
-0.0917093
-0.0908837
-0.0911987
-0.0936879
-0.0990216
-0.10745
-0.118923
-0.133212
-0.149932
-0.168557
-0.188457
-0.208988
-0.22957
-0.249734
-0.26913
-0.287503
-0.304663
-0.320452
-0.334732
-0.347377
-0.35827
-0.367303
-0.374384
-0.379435
-0.382393
-0.383211
-0.38186
-0.378353
-0.37264
-0.364748
-0.354723
-0.342615
-0.328489
-0.312434
-0.294571
-0.275061
-0.254119
-0.232044
-0.209244
-0.186268
-0.16382
-0.142737
-0.123858
-0.107955
-0.0950409
-0.0854111
-0.0769371
-0.0704771
-0.0679892
-0.0900376
-0.0893198
-0.0885314
-0.0882841
-0.0892594
-0.0921005
-0.0973528
-0.105402
-0.116417
-0.130315
-0.146765
-0.165229
-0.185049
-0.20555
-0.226119
-0.246254
-0.265565
-0.283753
-0.300589
-0.315884
-0.32948
-0.341242
-0.351049
-0.358801
-0.364412
-0.367814
-0.368958
-0.367808
-0.364369
-0.358605
-0.350521
-0.340163
-0.327578
-0.31283
-0.296005
-0.277227
-0.256666
-0.234556
-0.211225
-0.187122
-0.16285
-0.139168
-0.116963
-0.0971004
-0.080343
-0.0666249
-0.0562879
-0.047031
-0.0393499
-0.0346078
-0.0877712
-0.087229
-0.0865683
-0.0859826
-0.0856926
-0.0861284
-0.0880269
-0.0922474
-0.0994698
-0.110011
-0.123793
-0.1404
-0.159184
-0.179389
-0.200265
-0.221147
-0.241487
-0.260854
-0.278917
-0.295419
-0.310155
-0.32296
-0.333698
-0.342256
-0.348544
-0.35249
-0.354042
-0.353162
-0.349846
-0.344072
-0.335832
-0.325164
-0.312118
-0.296756
-0.279166
-0.259474
-0.23786
-0.214579
-0.189985
-0.164567
-0.138971
-0.114
-0.0905691
-0.0695492
-0.0516763
-0.0368056
-0.0253857
-0.0144158
-0.00500156
0.00396923
-0.085734
-0.0853976
-0.0849345
-0.0841621
-0.0828078
-0.0809752
-0.0794697
-0.0795939
-0.0826096
-0.0893294
-0.099997
-0.114354
-0.131781
-0.151458
-0.172503
-0.194087
-0.215496
-0.236148
-0.255589
-0.273471
-0.289527
-0.303549
-0.315378
-0.324887
-0.33198
-0.33658
-0.338634
-0.338104
-0.33498
-0.329257
-0.320913
-0.309985
-0.296526
-0.280599
-0.262294
-0.241745
-0.219143
-0.194759
-0.168972
-0.142298
-0.115408
-0.0891193
-0.0643424
-0.041922
-0.0225471
-0.00603128
0.0070603
0.0208086
0.0317252
0.0475528
-0.083805
-0.0837295
-0.083522
-0.0826185
-0.0802864
-0.0763006
-0.0714539
-0.0674098
-0.0660044
-0.0686017
-0.0758309
-0.0876323
-0.103436
-0.122366
-0.143424
-0.165623
-0.188083
-0.210063
-0.230974
-0.250361
-0.267879
-0.283268
-0.296333
-0.306931
-0.314952
-0.320319
-0.322977
-0.32289
-0.320042
-0.314445
-0.306078
-0.294973
-0.281188
-0.264793
-0.245886
-0.224607
-0.201159
-0.175828
-0.149004
-0.121209
-0.0931079
-0.0654886
-0.0392048
-0.0150219
0.00646029
0.0254853
0.0414575
0.0594396
0.0717718
0.0982269
-0.0817897
-0.0820417
-0.082123
-0.0810334
-0.0776676
-0.0715806
-0.0635467
-0.0554927
-0.0497415
-0.0481865
-0.0518694
-0.0609655
-0.0749807
-0.0930029
-0.113928
-0.136628
-0.160064
-0.183345
-0.205742
-0.226686
-0.245745
-0.262595
-0.277002
-0.288794
-0.29785
-0.304085
-0.307445
-0.307897
-0.305425
-0.300045
-0.291759
-0.280596
-0.266619
-0.24991
-0.230576
-0.20877
-0.184703
-0.158663
-0.131036
-0.10232
-0.0731245
-0.0441522
-0.0161355
0.0103084
0.0347452
0.0576054
0.0784977
0.103268
0.120264
0.163304
-0.0794745
-0.0800821
-0.0804494
-0.0790094
-0.0744105
-0.0662004
-0.0552212
-0.0435609
-0.0338795
-0.0284942
-0.0288251
-0.0352949
-0.0475119
-0.064554
-0.0852369
-0.108315
-0.132611
-0.157094
-0.180908
-0.203371
-0.223963
-0.242292
-0.258076
-0.271113
-0.281265
-0.28844
-0.292582
-0.293661
-0.291667
-0.286614
-0.278531
-0.267454
-0.25346
-0.236642
-0.217119
-0.195051
-0.170652
-0.144201
-0.11605
-0.0866308
-0.0564491
-0.0260515
0.00402722
0.0334005
0.0618873
0.0902376
0.118457
0.153638
0.183413
0.248096
-0.0769631
-0.0778121
-0.0783103
-0.0762652
-0.0702159
-0.0597878
-0.0461196
-0.0314623
-0.0185845
-0.0100478
-0.00755811
-0.0117527
-0.0223537
-0.0384611
-0.0588486
-0.0821868
-0.107192
-0.132719
-0.157799
-0.181652
-0.203673
-0.223405
-0.240519
-0.254779
-0.266028
-0.274164
-0.279129
-0.280899
-0.279471
-0.274865
-0.267118
-0.25628
-0.242448
-0.225739
-0.206281
-0.184232
-0.159794
-0.133216
-0.104791
-0.0748465
-0.0437282
-0.0117522
0.0208531
0.0540812
0.0881763
0.12433
0.162856
0.212511
0.26001
0.338575
-0.0755411
-0.0762394
-0.0763679
-0.0731439
-0.0652639
-0.0526114
-0.0365313
-0.0195335
-0.00439559
0.0063806
0.0108966
0.00837084
-0.000996048
-0.0163427
-0.0364451
-0.0599363
-0.0854673
-0.111811
-0.137918
-0.162929
-0.186167
-0.207121
-0.225415
-0.240783
-0.253047
-0.262097
-0.267871
-0.270347
-0.269532
-0.265459
-0.258183
-0.247747
-0.234238
-0.217801
-0.198586
-0.176752
-0.152473
-0.12595
-0.0973968
-0.0670129
-0.0349396
-0.00118423
0.0344845
0.0727333
0.114729
0.162802
0.21802
0.289143
0.349506
0.424474
-0.0797141
-0.0790151
-0.0774068
-0.0717975
-0.0612503
-0.0460111
-0.027684
-0.00887124
0.00764692
0.0196584
0.0253977
0.0238637
0.0152434
0.000375822
-0.0195396
-0.043134
-0.0690307
-0.0959593
-0.122817
-0.148692
-0.172857
-0.194757
-0.21398
-0.230237
-0.243332
-0.253144
-0.259609
-0.262706
-0.262447
-0.258873
-0.252045
-0.242055
-0.22898
-0.2129
-0.193975
-0.172381
-0.148282
-0.121833
-0.0931648
-0.0623399
-0.0292742
0.00639682
0.045522
0.0898155
0.142196
0.207886
0.291679
0.403596
0.495855
0.603433
-0.103147
-0.0953271
-0.0868819
-0.0760937
-0.0617299
-0.0433973
-0.0227405
-0.00233812
0.0153615
0.0281473
0.034329
0.0332193
0.0250092
0.010489
-0.00918756
-0.0326859
-0.0586448
-0.0857899
-0.112999
-0.139332
-0.16403
-0.186507
-0.206325
-0.223173
-0.236838
-0.24719
-0.254157
-0.257717
-0.257882
-0.254694
-0.24822
-0.238544
-0.225765
-0.209993
-0.191354
-0.169986
-0.146039
-0.119638
-0.090846
-0.0596015
-0.0256023
0.011895
0.0544054
0.104849
0.168355
0.254416
0.375706
0.555749
0.767709
1.10786
-0.189982
-0.112228
-0.0806406
-0.071412
-0.0581336
-0.0387586
-0.0170588
0.00395116
0.0217615
0.0341965
0.0398504
0.0382399
0.029637
0.014861
-0.00494131
-0.028472
-0.0544156
-0.0815367
-0.10874
-0.1351
-0.159863
-0.18244
-0.20239
-0.219392
-0.233229
-0.243762
-0.250917
-0.254667
-0.255022
-0.252024
-0.245738
-0.236247
-0.223651
-0.208061
-0.189596
-0.168388
-0.144572
-0.118244
-0.0894096
-0.0579103
-0.0232798
0.0155059
0.0604387
0.115261
0.186531
0.286593
0.435337
0.680395
1.07939
1.82855
)
;

boundaryField
{
    movingWall
    {
        type            zeroGradient;
    }
    fixedWalls
    {
        type            zeroGradient;
    }
    frontAndBack
    {
        type            empty;
    }
}


// ************************************************************************* //
