/*--------------------------------*- C++ -*----------------------------------*\
  =========                 |
  \\      /  F ield         | OpenFOAM: The Open Source CFD Toolbox
   \\    /   O peration     | Website:  https://openfoam.org
    \\  /    A nd           | Version:  7
     \\/     M anipulation  |
\*---------------------------------------------------------------------------*/
FoamFile
{
    version     2.0;
    format      ascii;
    class       volVectorField;
    location    "1650";
    object      U;
}
// * * * * * * * * * * * * * * * * * * * * * * * * * * * * * * * * * * * * * //

dimensions      [0 1 -1 0 0 0 0];

internalField   nonuniform List<vector> 
2500
(
(0.000207613 -0.000201061 0)
(0.00186634 -0.000571053 0)
(0.00447429 -0.000697781 0)
(0.00716318 -0.000600078 0)
(0.00922924 -0.00041898 0)
(0.0104506 -0.000264321 0)
(0.0109304 -0.000187988 0)
(0.0108813 -0.000185859 0)
(0.0104509 -0.000219846 0)
(0.00963451 -0.000245413 0)
(0.00828306 -0.000228672 0)
(0.00616421 -0.000150772 0)
(0.00302068 -2.66672e-06 0)
(-0.00139122 0.000221025 0)
(-0.00727611 0.000523437 0)
(-0.0147665 0.000908104 0)
(-0.0238848 0.00137504 0)
(-0.034501 0.00191261 0)
(-0.0462973 0.00248759 0)
(-0.0587475 0.00303767 0)
(-0.0711233 0.00347313 0)
(-0.0825313 0.00368939 0)
(-0.0919822 0.00358799 0)
(-0.0984934 0.00310373 0)
(-0.1012 0.00223094 0)
(-0.0994279 0.00102777 0)
(-0.0929096 -0.000374996 0)
(-0.0817178 -0.00181193 0)
(-0.0663204 -0.00310944 0)
(-0.047575 -0.00410044 0)
(-0.0267005 -0.00464 0)
(-0.00517849 -0.00460559 0)
(0.0154652 -0.00393521 0)
(0.0337603 -0.00278386 0)
(0.0484 -0.00137084 0)
(0.0584289 0.000126158 0)
(0.0634671 0.00149731 0)
(0.0637274 0.00253455 0)
(0.0600164 0.00311205 0)
(0.0534995 0.00322492 0)
(0.0454086 0.00298645 0)
(0.036847 0.00254957 0)
(0.0286514 0.00204866 0)
(0.0213417 0.00157431 0)
(0.0151475 0.0011742 0)
(0.0100799 0.000863392 0)
(0.00602897 0.00063122 0)
(0.00290109 0.000436007 0)
(0.00079531 0.000192777 0)
(-8.20294e-05 -8.74307e-05 0)
(0.000566312 -0.00181819 0)
(0.00437487 -0.00431628 0)
(0.00958209 -0.00511676 0)
(0.0146039 -0.00444062 0)
(0.0181615 -0.00299827 0)
(0.0197684 -0.00145775 0)
(0.019463 -0.00019241 0)
(0.0174567 0.000765665 0)
(0.0138344 0.00162527 0)
(0.00840753 0.00266513 0)
(0.000739177 0.00410252 0)
(-0.0097268 0.00604338 0)
(-0.0235195 0.00849191 0)
(-0.0410012 0.011381 0)
(-0.0622523 0.0145723 0)
(-0.0869654 0.0178402 0)
(-0.114383 0.0208642 0)
(-0.14331 0.023252 0)
(-0.172226 0.0245949 0)
(-0.199448 0.0245359 0)
(-0.223322 0.022828 0)
(-0.242367 0.0193714 0)
(-0.255383 0.01423 0)
(-0.261514 0.00763674 0)
(-0.260287 -1.78806e-05 0)
(-0.251634 -0.00821821 0)
(-0.235747 -0.0163947 0)
(-0.213075 -0.0239931 0)
(-0.184387 -0.0304489 0)
(-0.150771 -0.0352291 0)
(-0.113635 -0.0378724 0)
(-0.0746768 -0.038035 0)
(-0.0358085 -0.0355715 0)
(0.00103617 -0.0306653 0)
(0.034013 -0.0238155 0)
(0.0614452 -0.015748 0)
(0.0820153 -0.00728359 0)
(0.0950024 0.000694904 0)
(0.100272 0.00734425 0)
(0.0984375 0.0120824 0)
(0.0909555 0.0147119 0)
(0.0796116 0.0154347 0)
(0.0662319 0.0147155 0)
(0.0524143 0.0131077 0)
(0.0393368 0.0111172 0)
(0.0276937 0.00911032 0)
(0.0177733 0.00724876 0)
(0.00968215 0.0054346 0)
(0.00372618 0.00334316 0)
(0.000329283 0.000918431 0)
(0.000785778 -0.00449524 0)
(0.00568866 -0.00969479 0)
(0.0117181 -0.010917 0)
(0.0169069 -0.00900565 0)
(0.0197644 -0.00542393 0)
(0.0197135 -0.00146971 0)
(0.016672 0.00215264 0)
(0.0106376 0.00542309 0)
(0.00138531 0.00878073 0)
(-0.0116168 0.0127919 0)
(-0.0290814 0.0178427 0)
(-0.0516364 0.0240102 0)
(-0.0795871 0.0310831 0)
(-0.112704 0.0385976 0)
(-0.150113 0.0458737 0)
(-0.19034 0.0520926 0)
(-0.231496 0.0564309 0)
(-0.271545 0.0582018 0)
(-0.308563 0.0569594 0)
(-0.340925 0.0525387 0)
(-0.367395 0.0450379 0)
(-0.387124 0.0347706 0)
(-0.3996 0.0222113 0)
(-0.404567 0.00794347 0)
(-0.401949 -0.0073852 0)
(-0.391715 -0.0230968 0)
(-0.373903 -0.0384777 0)
(-0.348793 -0.0527334 0)
(-0.316866 -0.0650308 0)
(-0.278884 -0.0745371 0)
(-0.235938 -0.0804777 0)
(-0.18947 -0.0822377 0)
(-0.141241 -0.0794872 0)
(-0.0932508 -0.0722852 0)
(-0.0476111 -0.0611798 0)
(-0.00631792 -0.047175 0)
(0.0289053 -0.0315623 0)
(0.0567013 -0.0157893 0)
(0.0763785 -0.00114612 0)
(0.0876636 0.0111709 0)
(0.0908194 0.0202541 0)
(0.0870998 0.0257401 0)
(0.0782102 0.0278612 0)
(0.0660403 0.027307 0)
(0.0523905 0.0249765 0)
(0.0387217 0.0217248 0)
(0.0260341 0.0181222 0)
(0.014968 0.0142392 0)
(0.00625647 0.00958301 0)
(0.00070521 0.00358666 0)
(0.000917709 -0.00772688 0)
(0.00606855 -0.0155924 0)
(0.0115466 -0.0165379 0)
(0.0151645 -0.0124518 0)
(0.0154189 -0.00573377 0)
(0.0117511 0.0016994 0)
(0.0039367 0.00894221 0)
(-0.00837315 0.0161031 0)
(-0.0258435 0.0239448 0)
(-0.0492899 0.0332183 0)
(-0.0793496 0.0442037 0)
(-0.11612 0.0565601 0)
(-0.158935 0.0694119 0)
(-0.20634 0.0815362 0)
(-0.256296 0.0916045 0)
(-0.306521 0.0984313 0)
(-0.35484 0.101168 0)
(-0.399445 0.0993919 0)
(-0.439004 0.0930924 0)
(-0.47264 0.08257 0)
(-0.499825 0.0683202 0)
(-0.520258 0.0509429 0)
(-0.533756 0.031076 0)
(-0.540153 0.00935194 0)
(-0.539277 -0.0135802 0)
(-0.530942 -0.0369851 0)
(-0.515039 -0.0600001 0)
(-0.491541 -0.0816641 0)
(-0.460536 -0.100927 0)
(-0.422342 -0.116646 0)
(-0.377597 -0.12767 0)
(-0.327317 -0.132998 0)
(-0.272962 -0.131948 0)
(-0.216466 -0.124316 0)
(-0.160151 -0.110528 0)
(-0.1065 -0.0916957 0)
(-0.0578589 -0.0695216 0)
(-0.0160964 -0.0460089 0)
(0.0175926 -0.0230712 0)
(0.0426182 -0.00245091 0)
(0.058918 0.0146152 0)
(0.0667522 0.0272037 0)
(0.0672324 0.0349398 0)
(0.0619141 0.0381653 0)
(0.0525871 0.0377845 0)
(0.0410427 0.034933 0)
(0.028832 0.0305681 0)
(0.01719 0.0250318 0)
(0.00742142 0.01774 0)
(0.00086212 0.00736587 0)
(0.000999782 -0.0110181 0)
(0.00561115 -0.0208278 0)
(0.00922958 -0.0203487 0)
(0.00967902 -0.0129024 0)
(0.00562122 -0.00193647 0)
(-0.00346253 0.0101261 0)
(-0.0180368 0.0223846 0)
(-0.038857 0.0352826 0)
(-0.0668571 0.0497599 0)
(-0.102689 0.0663423 0)
(-0.146251 0.0846574 0)
(-0.196469 0.103475 0)
(-0.251404 0.121064 0)
(-0.308608 0.13563 0)
(-0.365577 0.145689 0)
(-0.42013 0.150288 0)
(-0.470622 0.149059 0)
(-0.515969 0.14213 0)
(-0.555545 0.129957 0)
(-0.589018 0.113152 0)
(-0.616224 0.0923841 0)
(-0.637096 0.0683309 0)
(-0.65157 0.0416273 0)
(-0.659542 0.0128757 0)
(-0.660909 -0.0172661 0)
(-0.655569 -0.0480396 0)
(-0.643307 -0.0785907 0)
(-0.623815 -0.10794 0)
(-0.596799 -0.134907 0)
(-0.562057 -0.158105 0)
(-0.519547 -0.176057 0)
(-0.469537 -0.187321 0)
(-0.412832 -0.190647 0)
(-0.350927 -0.185246 0)
(-0.286032 -0.171097 0)
(-0.220975 -0.149139 0)
(-0.15892 -0.121266 0)
(-0.102871 -0.0900788 0)
(-0.0551181 -0.0584293 0)
(-0.0168477 -0.0288358 0)
(0.0118147 -0.00307395 0)
(0.0312489 0.0176548 0)
(0.0420086 0.0326806 0)
(0.0452979 0.0418494 0)
(0.0426363 0.0456998 0)
(0.0357503 0.0453004 0)
(0.0264029 0.0417606 0)
(0.0162524 0.0356006 0)
(0.00711047 0.0261579 0)
(0.000796563 0.0113832 0)
(0.000995788 -0.0139232 0)
(0.00416229 -0.0242951 0)
(0.00458208 -0.0208794 0)
(0.000397528 -0.00872753 0)
(-0.0094644 0.00765851 0)
(-0.0255661 0.0255968 0)
(-0.0486506 0.0444858 0)
(-0.0796982 0.0649985 0)
(-0.119423 0.0877918 0)
(-0.167643 0.112552 0)
(-0.223013 0.137826 0)
(-0.283231 0.161459 0)
(-0.345529 0.18123 0)
(-0.407216 0.195364 0)
(-0.46607 0.202789 0)
(-0.520505 0.203157 0)
(-0.569547 0.196693 0)
(-0.612692 0.18398 0)
(-0.649741 0.165757 0)
(-0.680687 0.142796 0)
(-0.705669 0.11587 0)
(-0.724895 0.0856877 0)
(-0.738561 0.0528678 0)
(-0.746847 0.0180122 0)
(-0.749905 -0.0182432 0)
(-0.747743 -0.0552812 0)
(-0.740117 -0.0924404 0)
(-0.726581 -0.128845 0)
(-0.706563 -0.163343 0)
(-0.679311 -0.194538 0)
(-0.643989 -0.2208 0)
(-0.599941 -0.240272 0)
(-0.546949 -0.251037 0)
(-0.485474 -0.251486 0)
(-0.416915 -0.240711 0)
(-0.343799 -0.218878 0)
(-0.269708 -0.187492 0)
(-0.198836 -0.149404 0)
(-0.135232 -0.108387 0)
(-0.0818967 -0.0683193 0)
(-0.0401194 -0.0323214 0)
(-0.00952523 -0.00225557 0)
(0.011053 0.0211464 0)
(0.0228063 0.0376035 0)
(0.0271629 0.0473316 0)
(0.0257865 0.0511127 0)
(0.0204675 0.0499409 0)
(0.0130795 0.0443212 0)
(0.00574991 0.0334784 0)
(0.000591095 0.0148945 0)
(0.00083998 -0.0158649 0)
(0.00148477 -0.0247713 0)
(-0.0025939 -0.0166962 0)
(-0.0126835 0.00144796 0)
(-0.0295686 0.0244023 0)
(-0.0539235 0.0495695 0)
(-0.0866479 0.0766409 0)
(-0.128501 0.10608 0)
(-0.179359 0.13764 0)
(-0.237792 0.169775 0)
(-0.301275 0.200005 0)
(-0.366775 0.225695 0)
(-0.431379 0.244731 0)
(-0.492722 0.255851 0)
(-0.549147 0.258662 0)
(-0.599656 0.253442 0)
(-0.643775 0.240902 0)
(-0.681405 0.221949 0)
(-0.712716 0.197547 0)
(-0.738102 0.168653 0)
(-0.758107 0.136151 0)
(-0.773302 0.100772 0)
(-0.784238 0.0631254 0)
(-0.791436 0.0237785 0)
(-0.795245 -0.0168084 0)
(-0.795759 -0.0582846 0)
(-0.792867 -0.100226 0)
(-0.786177 -0.141985 0)
(-0.774961 -0.182704 0)
(-0.758091 -0.221245 0)
(-0.734188 -0.256026 0)
(-0.701783 -0.284981 0)
(-0.659485 -0.305727 0)
(-0.606302 -0.315848 0)
(-0.542145 -0.313251 0)
(-0.468294 -0.296701 0)
(-0.387662 -0.266443 0)
(-0.304737 -0.224626 0)
(-0.225048 -0.175276 0)
(-0.154066 -0.123623 0)
(-0.0957942 -0.0748579 0)
(-0.0516914 -0.0327741 0)
(-0.0207427 0.000875125 0)
(-0.00073968 0.0259535 0)
(0.0103129 0.0427931 0)
(0.0143176 0.0520161 0)
(0.0132103 0.0544194 0)
(0.00901477 0.0503561 0)
(0.00400147 0.0389287 0)
(0.000362316 0.0174931 0)
(0.000465249 -0.0160984 0)
(-0.00257204 -0.0209761 0)
(-0.0122822 -0.0066213 0)
(-0.0292295 0.0186544 0)
(-0.0539447 0.049267 0)
(-0.0871792 0.0828718 0)
(-0.129657 0.119117 0)
(-0.181387 0.157655 0)
(-0.241047 0.196936 0)
(-0.306049 0.234249 0)
(-0.373156 0.266545 0)
(-0.439201 0.291286 0)
(-0.50158 0.306907 0)
(-0.558448 0.312874 0)
(-0.608689 0.309474 0)
(-0.651798 0.297542 0)
(-0.68775 0.278205 0)
(-0.7169 0.252702 0)
(-0.739896 0.222265 0)
(-0.757597 0.188035 0)
(-0.770922 0.150957 0)
(-0.780748 0.11175 0)
(-0.787896 0.0709769 0)
(-0.79304 0.0290353 0)
(-0.796591 -0.0138803 0)
(-0.798784 -0.0576336 0)
(-0.799709 -0.102033 0)
(-0.799092 -0.14681 0)
(-0.796258 -0.19156 0)
(-0.790133 -0.235528 0)
(-0.779253 -0.277425 0)
(-0.761703 -0.315395 0)
(-0.735186 -0.347028 0)
(-0.697379 -0.369389 0)
(-0.646462 -0.37929 0)
(-0.581703 -0.373883 0)
(-0.504112 -0.351464 0)
(-0.416957 -0.312295 0)
(-0.325818 -0.259203 0)
(-0.237856 -0.197609 0)
(-0.160267 -0.134592 0)
(-0.0982304 -0.0769965 0)
(-0.0533074 -0.0293686 0)
(-0.0235734 0.00687489 0)
(-0.00555588 0.032453 0)
(0.00361813 0.0482966 0)
(0.00646092 0.0552505 0)
(0.00529095 0.0535896 0)
(0.00248823 0.042378 0)
(0.000209306 0.0191577 0)
(-0.000171608 -0.0137893 0)
(-0.00796365 -0.0118356 0)
(-0.0241178 0.0101956 0)
(-0.0484324 0.0434978 0)
(-0.0812254 0.082632 0)
(-0.123133 0.12538 0)
(-0.174294 0.170814 0)
(-0.233637 0.217335 0)
(-0.298696 0.262095 0)
(-0.366138 0.301641 0)
(-0.43254 0.332911 0)
(-0.494997 0.353892 0)
(-0.551394 0.363779 0)
(-0.600427 0.362792 0)
(-0.641517 0.351876 0)
(-0.674693 0.332408 0)
(-0.700487 0.305959 0)
(-0.719799 0.274115 0)
(-0.733762 0.238337 0)
(-0.74358 0.199844 0)
(-0.750368 0.159541 0)
(-0.75512 0.118059 0)
(-0.758666 0.0758022 0)
(-0.761586 0.0329228 0)
(-0.764289 -0.0105757 0)
(-0.76712 -0.0546934 0)
(-0.770237 -0.0994874 0)
(-0.773521 -0.145051 0)
(-0.776617 -0.191345 0)
(-0.778878 -0.238023 0)
(-0.779166 -0.284352 0)
(-0.775666 -0.329087 0)
(-0.76589 -0.370237 0)
(-0.746838 -0.4049 0)
(-0.715286 -0.429375 0)
(-0.668372 -0.43957 0)
(-0.604502 -0.431712 0)
(-0.524356 -0.403377 0)
(-0.431634 -0.354711 0)
(-0.333158 -0.289368 0)
(-0.237971 -0.214563 0)
(-0.155215 -0.139705 0)
(-0.0912423 -0.0736156 0)
(-0.0473973 -0.0215276 0)
(-0.0204254 0.0158097 0)
(-0.00546932 0.0401183 0)
(0.00120686 0.0527821 0)
(0.00267516 0.0543897 0)
(0.00160646 0.0442036 0)
(0.00018397 0.020169 0)
(-0.00107226 -0.0081695 0)
(-0.0144141 0.00339948 0)
(-0.0373639 0.0341341 0)
(-0.0690379 0.0760356 0)
(-0.109492 0.124122 0)
(-0.158981 0.175934 0)
(-0.216762 0.2295 0)
(-0.280678 0.281861 0)
(-0.347455 0.329205 0)
(-0.413481 0.367865 0)
(-0.475526 0.395207 0)
(-0.531148 0.409984 0)
(-0.578797 0.41223 0)
(-0.617773 0.402943 0)
(-0.648135 0.383748 0)
(-0.670567 0.356587 0)
(-0.686213 0.323461 0)
(-0.696472 0.286208 0)
(-0.702779 0.246352 0)
(-0.706432 0.205017 0)
(-0.708501 0.162939 0)
(-0.709829 0.120548 0)
(-0.711003 0.0780138 0)
(-0.712392 0.0353012 0)
(-0.714318 -0.00767892 0)
(-0.717071 -0.0510461 0)
(-0.720761 -0.0950176 0)
(-0.725465 -0.13983 0)
(-0.731223 -0.18563 0)
(-0.737885 -0.232459 0)
(-0.744883 -0.280199 0)
(-0.751072 -0.328339 0)
(-0.754564 -0.375659 0)
(-0.752555 -0.419959 0)
(-0.741301 -0.457896 0)
(-0.716515 -0.484969 0)
(-0.674206 -0.49591 0)
(-0.611855 -0.485665 0)
(-0.529748 -0.450893 0)
(-0.432076 -0.39167 0)
(-0.327163 -0.312791 0)
(-0.226232 -0.22384 0)
(-0.140477 -0.137172 0)
(-0.0771135 -0.0638133 0)
(-0.0365885 -0.00930379 0)
(-0.0137792 0.0268094 0)
(-0.00262505 0.0471526 0)
(0.00130432 0.0532536 0)
(0.00144728 0.0450215 0)
(0.000288234 0.0209469 0)
(-0.00217941 0.00130823 0)
(-0.0214251 0.0250173 0)
(-0.0510188 0.0650561 0)
(-0.0894969 0.115736 0)
(-0.136546 0.172604 0)
(-0.191809 0.232551 0)
(-0.253589 0.292324 0)
(-0.318881 0.3478 0)
(-0.384016 0.394674 0)
(-0.445475 0.429526 0)
(-0.500452 0.450447 0)
(-0.547089 0.457092 0)
(-0.584504 0.4504 0)
(-0.612723 0.432196 0)
(-0.632546 0.404808 0)
(-0.645333 0.370695 0)
(-0.652735 0.332137 0)
(-0.656413 0.291008 0)
(-0.657818 0.248667 0)
(-0.658071 0.205968 0)
(-0.657965 0.163358 0)
(-0.657999 0.120997 0)
(-0.658435 0.0788439 0)
(-0.659409 0.0367675 0)
(-0.661058 -0.00537475 0)
(-0.663517 -0.0477632 0)
(-0.666859 -0.090603 0)
(-0.671282 -0.134082 0)
(-0.677035 -0.178404 0)
(-0.684308 -0.223834 0)
(-0.693137 -0.270637 0)
(-0.703264 -0.318901 0)
(-0.713833 -0.368309 0)
(-0.723 -0.417823 0)
(-0.727647 -0.465215 0)
(-0.723363 -0.506637 0)
(-0.704829 -0.536532 0)
(-0.66679 -0.548172 0)
(-0.605651 -0.53496 0)
(-0.521356 -0.492476 0)
(-0.418869 -0.420877 0)
(-0.308421 -0.32672 0)
(-0.203739 -0.222884 0)
(-0.117975 -0.125394 0)
(-0.0584538 -0.0473706 0)
(-0.0236425 0.00624746 0)
(-0.00618811 0.0377647 0)
(0.00068019 0.0503937 0)
(0.00181028 0.0453577 0)
(0.000485839 0.0218746 0)
(-0.0033578 0.0148776 0)
(-0.0283499 0.0528168 0)
(-0.0639631 0.102337 0)
(-0.108201 0.161516 0)
(-0.160269 0.226358 0)
(-0.219097 0.292805 0)
(-0.282162 0.356346 0)
(-0.345949 0.412059 0)
(-0.406754 0.455607 0)
(-0.461412 0.484171 0)
(-0.507693 0.496763 0)
(-0.544443 0.494053 0)
(-0.571562 0.477955 0)
(-0.589883 0.451146 0)
(-0.600925 0.416577 0)
(-0.606566 0.37704 0)
(-0.608686 0.33483 0)
(-0.608891 0.291588 0)
(-0.608364 0.248304 0)
(-0.607851 0.205442 0)
(-0.607746 0.163117 0)
(-0.608186 0.121244 0)
(-0.609161 0.079654 0)
(-0.610619 0.0381775 0)
(-0.612518 -0.00334241 0)
(-0.614885 -0.0450494 0)
(-0.617777 -0.0870464 0)
(-0.621358 -0.129423 0)
(-0.625872 -0.172337 0)
(-0.631639 -0.216039 0)
(-0.639056 -0.260867 0)
(-0.648497 -0.307216 0)
(-0.660053 -0.355465 0)
(-0.673177 -0.405688 0)
(-0.686223 -0.457118 0)
(-0.695964 -0.50747 0)
(-0.697338 -0.552323 0)
(-0.683845 -0.584882 0)
(-0.648849 -0.596583 0)
(-0.587711 -0.578903 0)
(-0.500262 -0.526293 0)
(-0.392715 -0.439522 0)
(-0.27781 -0.328018 0)
(-0.172118 -0.209259 0)
(-0.0902933 -0.103558 0)
(-0.03832 -0.0252656 0)
(-0.0113359 0.0229134 0)
(-0.00015377 0.0453705 0)
(0.00229746 0.0453566 0)
(0.000720678 0.0231572 0)
(-0.00444347 0.0323864 0)
(-0.0345359 0.0861334 0)
(-0.0751398 0.14492 0)
(-0.123721 0.211868 0)
(-0.178946 0.283346 0)
(-0.239062 0.35422 0)
(-0.300962 0.418935 0)
(-0.360954 0.472184 0)
(-0.415576 0.509993 0)
(-0.462187 0.530399 0)
(-0.499258 0.533494 0)
(-0.526438 0.521056 0)
(-0.54446 0.496001 0)
(-0.554908 0.461769 0)
(-0.559829 0.421727 0)
(-0.56131 0.378695 0)
(-0.561126 0.334685 0)
(-0.560542 0.290877 0)
(-0.560297 0.247781 0)
(-0.560698 0.205461 0)
(-0.561775 0.163757 0)
(-0.563414 0.122435 0)
(-0.565458 0.0812844 0)
(-0.567757 0.040142 0)
(-0.570199 -0.00111192 0)
(-0.572781 -0.0425426 0)
(-0.575537 -0.0841703 0)
(-0.578526 -0.12601 0)
(-0.581897 -0.168114 0)
(-0.585914 -0.210592 0)
(-0.590992 -0.253655 0)
(-0.597673 -0.297702 0)
(-0.606562 -0.343342 0)
(-0.618131 -0.391283 0)
(-0.632293 -0.442 0)
(-0.647708 -0.495081 0)
(-0.661034 -0.548261 0)
(-0.666513 -0.596398 0)
(-0.656391 -0.631034 0)
(-0.622575 -0.641263 0)
(-0.559478 -0.616333 0)
(-0.467301 -0.549809 0)
(-0.354346 -0.444129 0)
(-0.23669 -0.31337 0)
(-0.133897 -0.181254 0)
(-0.0609063 -0.0724167 0)
(-0.0200552 -0.00019502 0)
(-0.00226758 0.0369474 0)
(0.00247032 0.0446328 0)
(0.000940105 0.0247554 0)
(-0.0052881 0.0532733 0)
(-0.0394222 0.123909 0)
(-0.0836906 0.191432 0)
(-0.134993 0.26506 0)
(-0.191456 0.341491 0)
(-0.25078 0.414571 0)
(-0.309547 0.478006 0)
(-0.364164 0.5265 0)
(-0.411598 0.556751 0)
(-0.449859 0.567854 0)
(-0.478197 0.561097 0)
(-0.497089 0.539406 0)
(-0.508031 0.506622 0)
(-0.513148 0.466727 0)
(-0.514703 0.423182 0)
(-0.514652 0.378507 0)
(-0.514384 0.334187 0)
(-0.514669 0.290833 0)
(-0.515776 0.248487 0)
(-0.517657 0.206907 0)
(-0.520116 0.165781 0)
(-0.522939 0.12484 0)
(-0.525943 0.0838974 0)
(-0.528987 0.0428353 0)
(-0.531982 0.00159315 0)
(-0.534934 -0.0398393 0)
(-0.537864 -0.0814457 0)
(-0.540759 -0.123202 0)
(-0.543674 -0.165077 0)
(-0.546728 -0.207052 0)
(-0.550146 -0.249178 0)
(-0.554316 -0.291659 0)
(-0.559857 -0.33494 0)
(-0.567611 -0.379789 0)
(-0.578435 -0.427264 0)
(-0.592692 -0.478349 0)
(-0.609376 -0.53307 0)
(-0.625056 -0.589077 0)
(-0.633161 -0.640174 0)
(-0.624466 -0.675686 0)
(-0.589357 -0.681748 0)
(-0.521681 -0.645171 0)
(-0.422922 -0.559386 0)
(-0.304697 -0.430482 0)
(-0.187308 -0.279819 0)
(-0.0928432 -0.138945 0)
(-0.0339614 -0.0351791 0)
(-0.00650202 0.0231784 0)
(0.00201313 0.0423164 0)
(0.00111662 0.026419 0)
(-0.00577034 0.0766326 0)
(-0.0425963 0.164811 0)
(-0.0890419 0.240328 0)
(-0.141399 0.319318 0)
(-0.197318 0.398895 0)
(-0.254134 0.472056 0)
(-0.308372 0.532111 0)
(-0.356734 0.574107 0)
(-0.396746 0.595657 0)
(-0.427135 0.59706 0)
(-0.44794 0.58086 0)
(-0.460385 0.551074 0)
(-0.466529 0.51226 0)
(-0.468741 0.468624 0)
(-0.469164 0.423373 0)
(-0.469359 0.378465 0)
(-0.47019 0.334737 0)
(-0.471938 0.292259 0)
(-0.474514 0.250725 0)
(-0.477666 0.209734 0)
(-0.481135 0.168953 0)
(-0.484723 0.128159 0)
(-0.488305 0.0872292 0)
(-0.491806 0.0461057 0)
(-0.495188 0.00477209 0)
(-0.498487 -0.0367614 0)
(-0.501726 -0.0784718 0)
(-0.504874 -0.120331 0)
(-0.507924 -0.162283 0)
(-0.510876 -0.204261 0)
(-0.513763 -0.246206 0)
(-0.516722 -0.288114 0)
(-0.520096 -0.330133 0)
(-0.524535 -0.372726 0)
(-0.531048 -0.416842 0)
(-0.540851 -0.463937 0)
(-0.554791 -0.515556 0)
(-0.572194 -0.572155 0)
(-0.589373 -0.631122 0)
(-0.598645 -0.684649 0)
(-0.58906 -0.718948 0)
(-0.549589 -0.716463 0)
(-0.474279 -0.661763 0)
(-0.367353 -0.549933 0)
(-0.245342 -0.394026 0)
(-0.133351 -0.226071 0)
(-0.0540415 -0.0858251 0)
(-0.0133491 0.00164536 0)
(0.000773985 0.0372267 0)
(0.00125406 0.0277891 0)
(-0.00581462 0.101331 0)
(-0.0438257 0.207358 0)
(-0.0909298 0.29003 0)
(-0.142771 0.372994 0)
(-0.196624 0.453975 0)
(-0.249652 0.525379 0)
(-0.298521 0.580431 0)
(-0.340366 0.614797 0)
(-0.373334 0.627178 0)
(-0.396869 0.619161 0)
(-0.411722 0.594519 0)
(-0.419689 0.558191 0)
(-0.423115 0.515157 0)
(-0.424303 0.469496 0)
(-0.425027 0.423877 0)
(-0.426325 0.379555 0)
(-0.428558 0.336745 0)
(-0.431641 0.295107 0)
(-0.435291 0.254152 0)
(-0.439212 0.213461 0)
(-0.443188 0.17277 0)
(-0.447103 0.13194 0)
(-0.450914 0.0909199 0)
(-0.45461 0.0496968 0)
(-0.458198 0.00827454 0)
(-0.461737 -0.0333369 0)
(-0.465266 -0.0751232 0)
(-0.46876 -0.117075 0)
(-0.472191 -0.159156 0)
(-0.47551 -0.201308 0)
(-0.478653 -0.243442 0)
(-0.481572 -0.28545 0)
(-0.484311 -0.327256 0)
(-0.487124 -0.368954 0)
(-0.490654 -0.41102 0)
(-0.496073 -0.454591 0)
(-0.504967 -0.501576 0)
(-0.518642 -0.554175 0)
(-0.536622 -0.613239 0)
(-0.55466 -0.675431 0)
(-0.563505 -0.730324 0)
(-0.550179 -0.759786 0)
(-0.502642 -0.741967 0)
(-0.416572 -0.660314 0)
(-0.301087 -0.51505 0)
(-0.179334 -0.331223 0)
(-0.0805206 -0.154852 0)
(-0.0231571 -0.0304522 0)
(-0.00128058 0.0280316 0)
(0.00137188 0.0284885 0)
(-0.00539766 0.126125 0)
(-0.0430543 0.250043 0)
(-0.0893732 0.339049 0)
(-0.139318 0.424662 0)
(-0.189905 0.505524 0)
(-0.238297 0.573727 0)
(-0.281442 0.622689 0)
(-0.316985 0.648893 0)
(-0.343695 0.652238 0)
(-0.361667 0.635604 0)
(-0.37221 0.603874 0)
(-0.377453 0.562655 0)
(-0.379753 0.517019 0)
(-0.381107 0.47062 0)
(-0.382799 0.425419 0)
(-0.385359 0.381975 0)
(-0.388771 0.340006 0)
(-0.39275 0.298936 0)
(-0.396974 0.258243 0)
(-0.401204 0.217588 0)
(-0.405317 0.176808 0)
(-0.409283 0.13585 0)
(-0.413127 0.0947156 0)
(-0.416878 0.0534139 0)
(-0.42056 0.0119501 0)
(-0.424247 -0.0296758 0)
(-0.427988 -0.0714627 0)
(-0.431768 -0.113425 0)
(-0.435564 -0.155557 0)
(-0.439333 -0.197835 0)
(-0.442993 -0.240195 0)
(-0.446432 -0.282526 0)
(-0.449523 -0.324676 0)
(-0.452207 -0.3665 0)
(-0.454656 -0.408018 0)
(-0.457512 -0.449726 0)
(-0.462115 -0.493013 0)
(-0.470432 -0.540381 0)
(-0.484196 -0.594777 0)
(-0.502898 -0.657223 0)
(-0.521162 -0.722776 0)
(-0.527478 -0.776803 0)
(-0.506704 -0.795289 0)
(-0.44688 -0.752093 0)
(-0.347728 -0.632558 0)
(-0.22599 -0.448189 0)
(-0.112346 -0.242566 0)
(-0.0364033 -0.0761128 0)
(-0.00422439 0.0132297 0)
(0.00146149 0.0281076 0)
(-0.0045441 0.149776 0)
(-0.0403745 0.291429 0)
(-0.0846142 0.386062 0)
(-0.131522 0.473179 0)
(-0.177972 0.552707 0)
(-0.221257 0.616713 0)
(-0.258703 0.659025 0)
(-0.288477 0.677071 0)
(-0.309921 0.671983 0)
(-0.323654 0.647862 0)
(-0.331346 0.610506 0)
(-0.335218 0.565903 0)
(-0.337415 0.518918 0)
(-0.339502 0.472582 0)
(-0.342274 0.428116 0)
(-0.345867 0.385485 0)
(-0.350045 0.344085 0)
(-0.354473 0.303265 0)
(-0.358886 0.262573 0)
(-0.363142 0.221785 0)
(-0.367209 0.180837 0)
(-0.371122 0.139737 0)
(-0.374941 0.0985115 0)
(-0.37871 0.0571732 0)
(-0.382454 0.0157175 0)
(-0.38624 -0.0258685 0)
(-0.390128 -0.0675957 0)
(-0.394108 -0.109497 0)
(-0.398165 -0.15159 0)
(-0.402277 -0.19388 0)
(-0.406389 -0.236351 0)
(-0.410399 -0.278941 0)
(-0.414152 -0.321521 0)
(-0.417455 -0.363889 0)
(-0.420163 -0.405817 0)
(-0.422371 -0.447259 0)
(-0.424743 -0.488777 0)
(-0.428849 -0.532145 0)
(-0.437098 -0.58066 0)
(-0.451554 -0.638093 0)
(-0.471189 -0.705099 0)
(-0.488604 -0.773489 0)
(-0.48928 -0.822048 0)
(-0.456326 -0.819433 0)
(-0.380126 -0.737019 0)
(-0.267994 -0.56847 0)
(-0.14695 -0.346016 0)
(-0.0534045 -0.137552 0)
(-0.00822332 -0.00881292 0)
(0.00147489 0.0261901 0)
(-0.00331655 0.17114 0)
(-0.0359882 0.330219 0)
(-0.0770454 0.429961 0)
(-0.12003 0.517684 0)
(-0.161767 0.59502 0)
(-0.199776 0.65428 0)
(-0.231802 0.689853 0)
(-0.256507 0.700175 0)
(-0.273709 0.687575 0)
(-0.284391 0.657235 0)
(-0.290379 0.615635 0)
(-0.293783 0.568867 0)
(-0.296401 0.521374 0)
(-0.299346 0.475486 0)
(-0.303008 0.431751 0)
(-0.307275 0.389699 0)
(-0.311831 0.348568 0)
(-0.316384 0.307745 0)
(-0.320765 0.266895 0)
(-0.324927 0.225906 0)
(-0.328902 0.184787 0)
(-0.332757 0.143575 0)
(-0.336563 0.102301 0)
(-0.340365 0.0609674 0)
(-0.344174 0.0195569 0)
(-0.348047 -0.021956 0)
(-0.35205 -0.06359 0)
(-0.356176 -0.10539 0)
(-0.360411 -0.147386 0)
(-0.36475 -0.189606 0)
(-0.369164 -0.232067 0)
(-0.373591 -0.27476 0)
(-0.377916 -0.317624 0)
(-0.381952 -0.360509 0)
(-0.385447 -0.403151 0)
(-0.388176 -0.445237 0)
(-0.390188 -0.486667 0)
(-0.392238 -0.528166 0)
(-0.396236 -0.572139 0)
(-0.405097 -0.622993 0)
(-0.420976 -0.685249 0)
(-0.441486 -0.757908 0)
(-0.455952 -0.826715 0)
(-0.446349 -0.86086 0)
(-0.395719 -0.821512 0)
(-0.300792 -0.683216 0)
(-0.180784 -0.459526 0)
(-0.0736119 -0.215124 0)
(-0.0135239 -0.0398823 0)
(0.00139048 0.0222551 0)
(-0.0018039 0.189237 0)
(-0.0301668 0.365297 0)
(-0.0671403 0.46986 0)
(-0.105549 0.557579 0)
(-0.142246 0.632224 0)
(-0.175024 0.686594 0)
(-0.202054 0.715734 0)
(-0.222429 0.719078 0)
(-0.236322 0.700055 0)
(-0.244913 0.66475 0)
(-0.250001 0.620085 0)
(-0.253445 0.572041 0)
(-0.256648 0.524522 0)
(-0.260325 0.479173 0)
(-0.26458 0.436002 0)
(-0.269184 0.394263 0)
(-0.273836 0.353161 0)
(-0.27833 0.312181 0)
(-0.282589 0.271108 0)
(-0.286633 0.229921 0)
(-0.290528 0.188666 0)
(-0.294352 0.147389 0)
(-0.298171 0.106108 0)
(-0.302023 0.0648135 0)
(-0.305907 0.0234742 0)
(-0.309867 -0.0179456 0)
(-0.313975 -0.0594686 0)
(-0.31823 -0.101149 0)
(-0.322608 -0.143023 0)
(-0.327111 -0.185131 0)
(-0.331728 -0.227508 0)
(-0.336427 -0.270182 0)
(-0.341143 -0.313153 0)
(-0.345745 -0.356354 0)
(-0.350014 -0.399602 0)
(-0.353643 -0.442558 0)
(-0.356343 -0.484805 0)
(-0.358166 -0.526241 0)
(-0.360073 -0.567963 0)
(-0.364482 -0.613419 0)
(-0.374845 -0.668488 0)
(-0.39285 -0.737846 0)
(-0.413309 -0.816175 0)
(-0.420858 -0.878797 0)
(-0.394621 -0.882589 0)
(-0.32149 -0.78492 0)
(-0.210282 -0.576034 0)
(-0.0954268 -0.306788 0)
(-0.0203508 -0.0816556 0)
(0.00125063 0.0158189 0)
(-0.000110339 0.20329 0)
(-0.0232167 0.395737 0)
(-0.0553965 0.505086 0)
(-0.0887827 0.592487 0)
(-0.120296 0.664271 0)
(-0.148019 0.713953 0)
(-0.170527 0.737265 0)
(-0.187262 0.734574 0)
(-0.198622 0.710268 0)
(-0.205827 0.671135 0)
(-0.210512 0.624339 0)
(-0.214211 0.575606 0)
(-0.217949 0.528271 0)
(-0.222128 0.483388 0)
(-0.226689 0.440565 0)
(-0.231376 0.398916 0)
(-0.235954 0.357691 0)
(-0.240303 0.316486 0)
(-0.244417 0.275193 0)
(-0.248355 0.233845 0)
(-0.252194 0.192502 0)
(-0.256004 0.151203 0)
(-0.259847 0.10995 0)
(-0.263753 0.0687215 0)
(-0.267713 0.0274745 0)
(-0.271756 -0.0138356 0)
(-0.275967 -0.0552328 0)
(-0.280352 -0.0967815 0)
(-0.28487 -0.138522 0)
(-0.289528 -0.180499 0)
(-0.294316 -0.222759 0)
(-0.29922 -0.265348 0)
(-0.304206 -0.308303 0)
(-0.309199 -0.351628 0)
(-0.314053 -0.395244 0)
(-0.318509 -0.43891 0)
(-0.322202 -0.482181 0)
(-0.324801 -0.524538 0)
(-0.326446 -0.565994 0)
(-0.328496 -0.608406 0)
(-0.334093 -0.65691 0)
(-0.347051 -0.719044 0)
(-0.36737 -0.797742 0)
(-0.384983 -0.878342 0)
(-0.379097 -0.920244 0)
(-0.329157 -0.86847 0)
(-0.232688 -0.688524 0)
(-0.116693 -0.408551 0)
(-0.0287046 -0.135282 0)
(0.00111771 0.00636965 0)
(0.00165445 0.212741 0)
(-0.0154544 0.420809 0)
(-0.0422965 0.535147 0)
(-0.0703733 0.6222 0)
(-0.0966869 0.69124 0)
(-0.119597 0.736707 0)
(-0.13804 0.755007 0)
(-0.151721 0.747327 0)
(-0.161139 0.718842 0)
(-0.167429 0.676859 0)
(-0.171974 0.628626 0)
(-0.175956 0.579549 0)
(-0.180075 0.532437 0)
(-0.184519 0.487875 0)
(-0.189154 0.445206 0)
(-0.193757 0.403495 0)
(-0.198167 0.36207 0)
(-0.202339 0.320636 0)
(-0.206309 0.279156 0)
(-0.210153 0.237694 0)
(-0.213942 0.196309 0)
(-0.21774 0.155023 0)
(-0.221599 0.113826 0)
(-0.22555 0.0726868 0)
(-0.229578 0.0315533 0)
(-0.233693 -0.00962724 0)
(-0.238003 -0.0508791 0)
(-0.242524 -0.0922792 0)
(-0.247195 -0.133871 0)
(-0.25202 -0.175705 0)
(-0.256992 -0.217831 0)
(-0.262098 -0.260303 0)
(-0.267319 -0.303179 0)
(-0.272615 -0.346505 0)
(-0.277898 -0.390283 0)
(-0.282993 -0.434396 0)
(-0.287593 -0.478513 0)
(-0.291273 -0.522042 0)
(-0.293704 -0.564395 0)
(-0.295266 -0.605984 0)
(-0.297996 -0.650132 0)
(-0.305933 -0.704477 0)
(-0.322535 -0.777509 0)
(-0.343843 -0.865732 0)
(-0.352703 -0.937207 0)
(-0.324599 -0.931477 0)
(-0.246486 -0.791129 0)
(-0.135356 -0.515365 0)
(-0.0381949 -0.200534 0)
(0.000969291 -0.00656218 0)
(0.0033845 0.217277 0)
(-0.00718878 0.439926 0)
(-0.0282888 0.559699 0)
(-0.0508842 0.646629 0)
(-0.0720592 0.713275 0)
(-0.0904086 0.755198 0)
(-0.105182 0.769435 0)
(-0.116265 0.757844 0)
(-0.124158 0.726208 0)
(-0.129818 0.682185 0)
(-0.134319 0.633008 0)
(-0.138513 0.583761 0)
(-0.142834 0.536821 0)
(-0.147339 0.492425 0)
(-0.151881 0.449762 0)
(-0.156293 0.407902 0)
(-0.160487 0.366259 0)
(-0.164468 0.324622 0)
(-0.168294 0.283001 0)
(-0.172041 0.241471 0)
(-0.175775 0.200081 0)
(-0.179546 0.158838 0)
(-0.183402 0.117721 0)
(-0.187379 0.0766935 0)
(-0.191461 0.0356983 0)
(-0.195632 -0.00532586 0)
(-0.200032 -0.0464063 0)
(-0.204694 -0.0876322 0)
(-0.209531 -0.129055 0)
(-0.214546 -0.170727 0)
(-0.219727 -0.212701 0)
(-0.225063 -0.255036 0)
(-0.230538 -0.297798 0)
(-0.236127 -0.341056 0)
(-0.241777 -0.384864 0)
(-0.247379 -0.429204 0)
(-0.252715 -0.473886 0)
(-0.257415 -0.51843 0)
(-0.261006 -0.562068 0)
(-0.263254 -0.604288 0)
(-0.265033 -0.646508 0)
(-0.269433 -0.694665 0)
(-0.281239 -0.759438 0)
(-0.301644 -0.846927 0)
(-0.319395 -0.937879 0)
(-0.309844 -0.974019 0)
(-0.251424 -0.87973 0)
(-0.149933 -0.622095 0)
(-0.0480905 -0.275649 0)
(0.000664964 -0.0234216 0)
(0.00493831 0.216712 0)
(0.00127484 0.452745 0)
(-0.0137729 0.578483 0)
(-0.0307965 0.665762 0)
(-0.046926 0.730542 0)
(-0.0609401 0.769728 0)
(-0.0723531 0.780921 0)
(-0.0811644 0.766485 0)
(-0.0877972 0.732631 0)
(-0.0929679 0.687231 0)
(-0.0974279 0.637452 0)
(-0.101721 0.588105 0)
(-0.106081 0.541243 0)
(-0.110488 0.496878 0)
(-0.114822 0.454121 0)
(-0.118977 0.412078 0)
(-0.122924 0.370233 0)
(-0.1267 0.328436 0)
(-0.130371 0.286722 0)
(-0.134007 0.245164 0)
(-0.137664 0.203801 0)
(-0.141385 0.162627 0)
(-0.145216 0.121614 0)
(-0.149197 0.080721 0)
(-0.153315 0.0398944 0)
(-0.157526 -0.000935892 0)
(-0.162001 -0.0418146 0)
(-0.166806 -0.0828308 0)
(-0.171821 -0.124053 0)
(-0.177044 -0.165536 0)
(-0.182464 -0.207336 0)
(-0.188065 -0.249511 0)
(-0.193833 -0.29213 0)
(-0.199748 -0.335277 0)
(-0.205775 -0.379036 0)
(-0.211841 -0.423454 0)
(-0.217801 -0.468462 0)
(-0.223378 -0.513734 0)
(-0.228132 -0.558573 0)
(-0.231582 -0.602066 0)
(-0.233777 -0.644201 0)
(-0.236501 -0.68858 0)
(-0.244194 -0.745259 0)
(-0.261237 -0.826611 0)
(-0.282817 -0.927219 0)
(-0.287546 -0.998025 0)
(-0.248275 -0.952078 0)
(-0.159689 -0.724243 0)
(-0.0575577 -0.357864 0)
(-4.95021e-06 -0.0446346 0)
(0.00616091 0.211273 0)
(0.00957343 0.458825 0)
(0.000926484 0.59141 0)
(-0.0105106 0.679606 0)
(-0.0216939 0.743193 0)
(-0.0315483 0.780526 0)
(-0.0398153 0.789722 0)
(-0.0465562 0.773475 0)
(-0.0520685 0.73825 0)
(-0.0567962 0.692022 0)
(-0.0611644 0.641883 0)
(-0.0654424 0.592446 0)
(-0.069706 0.545563 0)
(-0.0739018 0.501122 0)
(-0.0779472 0.458214 0)
(-0.0817993 0.415984 0)
(-0.0854731 0.373972 0)
(-0.0890231 0.332061 0)
(-0.0925166 0.290298 0)
(-0.0960154 0.248749 0)