/*--------------------------------*- C++ -*----------------------------------*\
  =========                 |
  \\      /  F ield         | OpenFOAM: The Open Source CFD Toolbox
   \\    /   O peration     | Website:  https://openfoam.org
    \\  /    A nd           | Version:  7
     \\/     M anipulation  |
\*---------------------------------------------------------------------------*/
FoamFile
{
    version     2.0;
    format      ascii;
    class       volScalarField;
    location    "300";
    object      p;
}
// * * * * * * * * * * * * * * * * * * * * * * * * * * * * * * * * * * * * * //

dimensions      [0 2 -2 0 0 0 0];

internalField   nonuniform List<scalar> 
2500
(
8.60572e-07
7.2421e-05
-8.27847e-06
-0.00030838
-0.000784236
-0.00137337
-0.00203572
-0.00276697
-0.00359306
-0.00455486
-0.00569251
-0.00703593
-0.00860203
-0.0103904
-0.0123773
-0.0145081
-0.0166896
-0.018789
-0.0206399
-0.0220583
-0.0228676
-0.0229264
-0.0221575
-0.0205753
-0.018304
-0.0155688
-0.0126906
-0.0100874
-0.00822384
-0.00754248
-0.00838336
-0.0108944
-0.0149684
-0.0203143
-0.026478
-0.0328975
-0.0390404
-0.0444997
-0.0490389
-0.0525786
-0.0551653
-0.0569315
-0.0580507
-0.0586985
-0.059027
-0.0591529
-0.0591544
-0.0590746
-0.0589359
-0.0587968
-6.73519e-05
5.13954e-06
-7.95794e-05
-0.000377253
-0.000830938
-0.00137645
-0.00197881
-0.00263968
-0.00338787
-0.00426389
-0.00530664
-0.00654611
-0.00800305
-0.00968509
-0.0115804
-0.0136517
-0.0158275
-0.0179952
-0.0200004
-0.0216576
-0.0227724
-0.0231727
-0.0227427
-0.0214558
-0.0194049
-0.0168054
-0.0139934
-0.0114057
-0.00952558
-0.00881516
-0.00963045
-0.0121393
-0.0162663
-0.0216709
-0.0278503
-0.0342562
-0.0403331
-0.045634
-0.0499121
-0.0531343
-0.0554151
-0.0569344
-0.0578853
-0.0584404
-0.0587365
-0.0588712
-0.0589071
-0.0588737
-0.0587727
-0.0586411
-1.65823e-05
5.16291e-05
-5.63312e-05
-0.000380049
-0.000833621
-0.00134126
-0.001873
-0.00244195
-0.00308941
-0.00386308
-0.00480723
-0.00596244
-0.00736702
-0.00905564
-0.0110483
-0.0133336
-0.0158503
-0.0184753
-0.0210244
-0.0232688
-0.024967
-0.0259029
-0.0259227
-0.0249731
-0.0231438
-0.0206609
-0.017861
-0.0151781
-0.0131075
-0.0121343
-0.0126479
-0.0148554
-0.018721
-0.0239508
-0.0300402
-0.0363689
-0.0423533
-0.0475466
-0.0516621
-0.0546274
-0.0565667
-0.0577233
-0.0583507
-0.0586543
-0.0587794
-0.0588164
-0.0588125
-0.0587777
-0.0586822
-0.058538
0.000232185
0.000269386
0.000103648
-0.00027894
-0.000755701
-0.00123777
-0.00170451
-0.00218843
-0.00275093
-0.00346341
-0.00439978
-0.00564015
-0.00727002
-0.00936672
-0.0119729
-0.0150672
-0.0185448
-0.0222151
-0.0258197
-0.0290657
-0.0316667
-0.0333817
-0.0340444
-0.0335896
-0.0320873
-0.0297389
-0.0268556
-0.0238584
-0.0212439
-0.0195226
-0.0191386
-0.0203805
-0.0233066
-0.0277126
-0.0331539
-0.0390293
-0.0447136
-0.0496817
-0.0536299
-0.0564636
-0.0582285
-0.0591322
-0.0594541
-0.059455
-0.0593202
-0.0591605
-0.0590271
-0.0589216
-0.0587919
-0.0586272
0.00071367
0.000682309
0.000421619
-4.17441e-05
-0.000553674
-0.0010282
-0.00146021
-0.00191028
-0.0024798
-0.00329155
-0.00448357
-0.0062046
-0.00859429
-0.0117476
-0.0156771
-0.0202894
-0.0253853
-0.0306811
-0.0358442
-0.0405326
-0.0444309
-0.0472816
-0.0489064
-0.0492201
-0.0482511
-0.0461437
-0.0431615
-0.0396885
-0.0361971
-0.0332045
-0.031208
-0.0306026
-0.0315993
-0.034164
-0.0380037
-0.0426173
-0.0474038
-0.0517978
-0.0553921
-0.057993
-0.0596269
-0.0604478
-0.0606453
-0.060468
-0.0601358
-0.059793
-0.0595141
-0.0593129
-0.0591369
-0.0589603
0.00147173
0.00133606
0.000955147
0.000402566
-0.000164356
-0.000671778
-0.00114521
-0.0016985
-0.00250207
-0.00376336
-0.00570905
-0.00855333
-0.0124506
-0.0174493
-0.0234658
-0.0302884
-0.0376047
-0.0450415
-0.0522049
-0.0587155
-0.0642374
-0.0685017
-0.0713216
-0.0725991
-0.0723316
-0.0706027
-0.0676083
-0.0636673
-0.0591864
-0.054641
-0.0505359
-0.0473466
-0.0454457
-0.0450276
-0.0460541
-0.0482476
-0.0511475
-0.0542221
-0.056999
-0.0591621
-0.0605851
-0.0613115
-0.0615037
-0.061324
-0.060943
-0.0605206
-0.0601565
-0.0598889
-0.0596841
-0.0595132
0.00254428
0.00227973
0.0017696
0.00111724
0.000459274
-0.000162042
-0.000836101
-0.00176003
-0.00320478
-0.00548148
-0.0088918
-0.0136629
-0.0198877
-0.0274946
-0.0362542
-0.0458145
-0.0557498
-0.0656071
-0.074946
-0.0833695
-0.0905461
-0.0962231
-0.100231
-0.10248
-0.102965
-0.101738
-0.0989218
-0.0947493
-0.0895203
-0.0836064
-0.0774384
-0.0714835
-0.0662026
-0.06199
-0.0591038
-0.0576072
-0.0573459
-0.0579826
-0.0590881
-0.0602563
-0.061194
-0.0617578
-0.0619432
-0.0618368
-0.0615425
-0.0611714
-0.0608231
-0.0605557
-0.060361
-0.0602165
0.00393698
0.00353647
0.00289637
0.00212175
0.00130452
0.000415452
-0.0007324
-0.00244982
-0.00512281
-0.00914474
-0.0148281
-0.0223238
-0.0315788
-0.0423424
-0.0542116
-0.0666911
-0.079255
-0.0913963
-0.102664
-0.112687
-0.121182
-0.127955
-0.132884
-0.135912
-0.137056
-0.136375
-0.133942
-0.129899
-0.124427
-0.117755
-0.110167
-0.102012
-0.0937024
-0.0856947
-0.0784521
-0.0723781
-0.0677406
-0.0646063
-0.0628197
-0.0620482
-0.0618858
-0.0619686
-0.0620496
-0.0620198
-0.0618747
-0.0616553
-0.0614242
-0.0612351
-0.0610962
-0.0609964
0.00559356
0.00506426
0.00428924
0.00334947
0.00224743
0.000843015
-0.00117765
-0.0042514
-0.00885454
-0.0153915
-0.0240855
-0.034914
-0.0476084
-0.0617059
-0.0766271
-0.0917567
-0.10651
-0.120383
-0.132971
-0.143984
-0.153231
-0.160607
-0.166058
-0.169568
-0.171182
-0.170997
-0.169056
-0.165436
-0.160221
-0.153508
-0.14542
-0.136127
-0.125871
-0.114997
-0.103966
-0.09335
-0.0837673
-0.0757782
-0.0697464
-0.0657255
-0.06344
-0.0623929
-0.0620504
-0.0619965
-0.0619996
-0.0619825
-0.0619402
-0.0618953
-0.0618517
-0.0618075
0.0073618
0.00671802
0.00579677
0.00460926
0.00302429
0.000761138
-0.00263315
-0.0076982
-0.0149292
-0.0246356
-0.0368441
-0.0512802
-0.0674219
-0.084596
-0.102083
-0.119209
-0.135406
-0.150243
-0.163427
-0.174784
-0.184234
-0.191762
-0.197379
-0.201106
-0.203007
-0.203203
-0.201733
-0.198637
-0.193946
-0.187675
-0.179833
-0.17043
-0.159512
-0.147204
-0.133777
-0.119704
-0.105689
-0.0926222
-0.0814231
-0.0728011
-0.0670106
-0.0637566
-0.0623423
-0.0619783
-0.0620533
-0.0622359
-0.0624174
-0.0625569
-0.0626332
-0.0626486
0.00898203
0.00824279
0.00713932
0.00557052
0.00323671
-0.000296198
-0.00560247
-0.0132598
-0.0236775
-0.0369578
-0.0528445
-0.0707694
-0.0899644
-0.109595
-0.128881
-0.147179
-0.164025
-0.179122
-0.192319
-0.203564
-0.212871
-0.22029
-0.225875
-0.229668
-0.231732
-0.232195
-0.23109
-0.228445
-0.224278
-0.218577
-0.211303
-0.202383
-0.191729
-0.179268
-0.165013
-0.149155
-0.132181
-0.11495
-0.0986676
-0.0846663
-0.0740192
-0.0671266
-0.0635533
-0.0622794
-0.0622037
-0.0625461
-0.0629449
-0.0632813
-0.0634871
-0.0635626
0.0101
0.00926958
0.00791656
0.00578918
0.00240088
-0.00282401
-0.0105292
-0.0212352
-0.0351535
-0.0520871
-0.0714518
-0.0923946
-0.113958
-0.135239
-0.155499
-0.17422
-0.191097
-0.205994
-0.21889
-0.229829
-0.238883
-0.246131
-0.251641
-0.255458
-0.257633
-0.258278
-0.257417
-0.255081
-0.251288
-0.246036
-0.239287
-0.230961
-0.220927
-0.209015
-0.195051
-0.17894
-0.160795
-0.141123
-0.120967
-0.101894
-0.0856975
-0.0737933
-0.0666072
-0.0633874
-0.0626663
-0.0630293
-0.0636236
-0.064151
-0.0644883
-0.064627
0.0102869
0.0093511
0.00765745
0.00477355
3.124e-05
-0.00724892
-0.0177021
-0.0316873
-0.0491247
-0.069467
-0.0918068
-0.115066
-0.138197
-0.160336
-0.180883
-0.199501
-0.216061
-0.230567
-0.243093
-0.253735
-0.262582
-0.269715
-0.275194
-0.279053
-0.281327
-0.282107
-0.281404
-0.27925
-0.275669
-0.270673
-0.264247
-0.256342
-0.246853
-0.235613
-0.222389
-0.206921
-0.189011
-0.168703
-0.146538
-0.123791
-0.102468
-0.084855
-0.0726312
-0.0660319
-0.0637544
-0.0637943
-0.0645356
-0.0652461
-0.0657231
-0.0659368
0.00910091
0.00803416
0.00589878
0.00207314
-0.00426527
-0.013842
-0.0271955
-0.044433
-0.0651258
-0.0883737
-0.113
-0.137799
-0.161743
-0.184107
-0.204484
-0.222728
-0.238859
-0.252979
-0.265206
-0.275649
-0.28439
-0.291492
-0.296999
-0.300931
-0.303306
-0.304198
-0.303608
-0.301563
-0.298089
-0.293204
-0.286914
-0.279204
-0.270021
-0.259253
-0.246709
-0.232109
-0.215115
-0.19543
-0.173041
-0.148566
-0.123599
-0.100688
-0.0826215
-0.071152
-0.0659821
-0.0650059
-0.0657317
-0.0666331
-0.067274
-0.0675879
0.00616997
0.00494013
0.00227208
-0.00263409
-0.0107115
-0.0226653
-0.0388572
-0.0590819
-0.0825485
-0.108046
-0.134218
-0.159838
-0.183997
-0.206167
-0.226141
-0.243936
-0.259673
-0.273499
-0.28554
-0.295889
-0.304608
-0.311739
-0.317308
-0.321326
-0.323799
-0.324789
-0.324293
-0.322331
-0.318922
-0.314086
-0.307835
-0.300175
-0.291092
-0.280538
-0.268403
-0.254484
-0.23846
-0.219912
-0.198448
-0.174017
-0.147397
-0.120653
-0.097
-0.0796595
-0.0700809
-0.0669724
-0.0672846
-0.0683729
-0.0692132
-0.0696693
0.00126107
-0.00016203
-0.00342467
-0.00947956
-0.0193183
-0.0335624
-0.0523388
-0.075106
-0.100738
-0.127788
-0.154819
-0.180684
-0.204653
-0.226404
-0.245909
-0.263293
-0.278726
-0.292362
-0.304308
-0.314631
-0.323369
-0.330548
-0.336185
-0.340282
-0.342839
-0.343914
-0.343503
-0.341619
-0.338274
-0.333482
-0.327255
-0.3196
-0.310524
-0.300019
-0.288047
-0.274505
-0.259181
-0.241707
-0.221575
-0.198294
-0.171821
-0.143248
-0.115334
-0.0920795
-0.076866
-0.0702121
-0.0693578
-0.0705305
-0.0716171
-0.0722712
-0.00567261
-0.00730928
-0.0111877
-0.01838
-0.0298837
-0.0461875
-0.0671539
-0.091917
-0.119073
-0.147028
-0.174359
-0.20006
-0.223606
-0.24486
-0.263919
-0.28097
-0.29619
-0.309711
-0.321612
-0.331933
-0.340696
-0.347914
-0.353601
-0.357758
-0.360381
-0.361524
-0.36119
-0.359382
-0.356111
-0.351382
-0.345202
-0.337575
-0.328506
-0.318002
-0.306066
-0.292674
-0.277733
-0.261012
-0.242083
-0.220323
-0.195144
-0.166618
-0.136404
-0.108265
-0.0869597
-0.075391
-0.0722663
-0.0732082
-0.0745986
-0.0754987
-0.0144782
-0.0163346
-0.0208069
-0.0290525
-0.0420279
-0.0600601
-0.0827456
-0.108934
-0.137016
-0.165335
-0.192555
-0.217843
-0.240863
-0.261624
-0.280299
-0.297091
-0.312161
-0.325606
-0.337476
-0.347792
-0.356563
-0.3638
-0.369514
-0.373708
-0.376379
-0.377575
-0.377307
-0.375572
-0.372378
-0.367728
-0.361622
-0.35406
-0.345041
-0.33457
-0.322658
-0.309319
-0.294547
-0.278253
-0.260175
-0.239787
-0.216319
-0.189119
-0.158582
-0.127361
-0.100516
-0.0831427
-0.0764632
-0.0765649
-0.0782798
-0.0794625
-0.0248251
-0.0268914
-0.0318987
-0.0410582
-0.0552492
-0.0746278
-0.0985472
-0.125628
-0.154131
-0.182409
-0.209248
-0.233994
-0.25647
-0.27678
-0.295135
-0.311725
-0.326677
-0.340057
-0.35189
-0.362184
-0.370943
-0.378176
-0.383897
-0.388112
-0.390816
-0.392052
-0.391838
-0.390168
-0.387048
-0.382481
-0.376465
-0.368996
-0.360069
-0.349681
-0.337838
-0.324561
-0.309879
-0.293802
-0.276236
-0.256854
-0.234982
-0.209666
-0.180301
-0.148034
-0.117091
-0.0938372
-0.0824457
-0.0808275
-0.0827656
-0.0842742
-0.0362515
-0.0385035
-0.0439604
-0.0538624
-0.0689861
-0.0893253
-0.114029
-0.141549
-0.170084
-0.198042
-0.224351
-0.248513
-0.27047
-0.290386
-0.308471
-0.324892
-0.339739
-0.353049
-0.364832
-0.375087
-0.383816
-0.391031
-0.396747
-0.40097
-0.403696
-0.404961
-0.404792
-0.403177
-0.400124
-0.395635
-0.38971
-0.382345
-0.373534
-0.363268
-0.351546
-0.33838
-0.323805
-0.30787
-0.290597
-0.271865
-0.251227
-0.227784
-0.200402
-0.168838
-0.13573
-0.107418
-0.0906338
-0.086284
-0.088146
-0.0900512
-0.0482243
-0.0506249
-0.0564318
-0.0668953
-0.0826731
-0.103619
-0.128724
-0.156331
-0.184625
-0.212099
-0.237815
-0.261406
-0.282892
-0.302464
-0.320318
-0.336587
-0.35133
-0.364563
-0.376282
-0.386487
-0.395178
-0.402366
-0.408068
-0.412293
-0.415034
-0.416319
-0.416187
-0.414619
-0.411622
-0.407203
-0.401362
-0.394098
-0.385406
-0.37528
-0.363713
-0.350707
-0.336287
-0.320507
-0.303441
-0.285116
-0.265336
-0.243449
-0.218242
-0.188545
-0.155205
-0.123365
-0.101221
-0.0932089
-0.0945109
-0.0969027
-0.060198
-0.0626999
-0.068753
-0.0796046
-0.0957851
-0.117039
-0.142243
-0.169684
-0.19757
-0.224485
-0.249608
-0.272669
-0.29374
-0.313013
-0.330664
-0.34679
-0.361428
-0.374577
-0.386228
-0.396377
-0.405026
-0.412186
-0.417871
-0.422094
-0.424847
-0.426145
-0.426042
-0.424511
-0.421562
-0.417201
-0.411433
-0.404259
-0.395679
-0.38569
-0.374287
-0.361469
-0.347248
-0.331667
-0.31481
-0.29678
-0.277576
-0.256852
-0.233616
-0.206316
-0.174297
-0.140792
-0.114064
-0.101789
-0.101965
-0.104884
-0.0716641
-0.074216
-0.0804108
-0.0914948
-0.107865
-0.129188
-0.154274
-0.181388
-0.208783
-0.235128
-0.259698
-0.28229
-0.303
-0.322015
-0.339483
-0.355477
-0.370012
-0.383077
-0.394659
-0.404754
-0.413364
-0.420497
-0.426167
-0.430386
-0.433147
-0.434452
-0.434374
-0.432871
-0.42996
-0.425646
-0.419937
-0.412839
-0.404355
-0.394489
-0.383242
-0.370614
-0.356612
-0.341268
-0.324654
-0.306896
-0.288113
-0.268223
-0.246583
-0.221709
-0.191997
-0.158625
-0.128656
-0.112038
-0.110561
-0.113937
-0.0822105
-0.0847174
-0.090972
-0.102152
-0.11854
-0.139754
-0.164575
-0.191277
-0.218161
-0.243972
-0.268053
-0.290243
-0.310648
-0.329442
-0.346748
-0.36262
-0.377059
-0.390047
-0.401568
-0.411616
-0.420193
-0.427305
-0.432962
-0.437178
-0.439945
-0.441255
-0.441194
-0.439714
-0.436829
-0.43255
-0.426884
-0.419843
-0.411436
-0.401672
-0.39056
-0.378106
-0.364319
-0.349226
-0.332885
-0.315417
-0.296993
-0.277717
-0.257295
-0.234576
-0.207598
-0.175792
-0.144204
-0.123716
-0.120207
-0.123827
-0.0915249
-0.0938344
-0.100082
-0.111253
-0.127523
-0.148503
-0.17297
-0.199228
-0.225628
-0.250969
-0.274639
-0.296498
-0.316653
-0.33526
-0.352428
-0.368193
-0.382549
-0.395473
-0.406946
-0.41696
-0.425515
-0.432614
-0.438265
-0.44248
-0.445253
-0.446569
-0.446518
-0.445052
-0.442183
-0.437924
-0.432285
-0.42528
-0.416925
-0.407235
-0.396229
-0.383919
-0.370325
-0.35547
-0.339408
-0.322248
-0.304172
-0.285389
-0.265885
-0.244934
-0.220681
-0.191373
-0.159754
-0.136309
-0.130567
-0.134144
-0.0993627
-0.101343
-0.107477
-0.118564
-0.134617
-0.155271
-0.179336
-0.205158
-0.231127
-0.256079
-0.279422
-0.301022
-0.320979
-0.339438
-0.356493
-0.372173
-0.386464
-0.399342
-0.410785
-0.420782
-0.42933
-0.436428
-0.442082
-0.446301
-0.449081
-0.450407
-0.450361
-0.448904
-0.44604
-0.441784
-0.436151
-0.429158
-0.420826
-0.411179
-0.40024
-0.388036
-0.374594
-0.359944
-0.344142
-0.327286
-0.309556
-0.291205
-0.272414
-0.252851
-0.231045
-0.204671
-0.174341
-0.149083
-0.141113
-0.144358
-0.105561
-0.107128
-0.113006
-0.123936
-0.139708
-0.159979
-0.183622
-0.20903
-0.23463
-0.259275
-0.282375
-0.303786
-0.323596
-0.341942
-0.358913
-0.374533
-0.388784
-0.401639
-0.413074
-0.423074
-0.431633
-0.438746
-0.444416
-0.448647
-0.451438
-0.452774
-0.452731
-0.451279
-0.448409
-0.444143
-0.438496
-0.431489
-0.423148
-0.413504
-0.40259
-0.390444
-0.377101
-0.362605
-0.347016
-0.330434
-0.313031
-0.295077
-0.276863
-0.258375
-0.23862
-0.21522
-0.187106
-0.161206
-0.15122
-0.15391
-0.110058
-0.111155
-0.116633
-0.127314
-0.142746
-0.162586
-0.185785
-0.2108
-0.236092
-0.260515
-0.283461
-0.304762
-0.324489
-0.342769
-0.35969
-0.375278
-0.389516
-0.402374
-0.413825
-0.423851
-0.43244
-0.439584
-0.44528
-0.449528
-0.452326
-0.453667
-0.45362
-0.452171
-0.449286
-0.444994
-0.439314
-0.432268
-0.423885
-0.414205
-0.403272
-0.39113
-0.377827
-0.36342
-0.347978
-0.331609
-0.314488
-0.296887
-0.279158
-0.261505
-0.243393
-0.222741
-0.197369
-0.171874
-0.160265
-0.162264
-0.11288
-0.113478
-0.118425
-0.128746
-0.143776
-0.163133
-0.185855
-0.210476
-0.235493
-0.259754
-0.282617
-0.303876
-0.323577
-0.341839
-0.358752
-0.374345
-0.388605
-0.401503
-0.413007
-0.423093
-0.431746
-0.438953
-0.444707
-0.449002
-0.451838
-0.4532
-0.453131
-0.451653
-0.44872
-0.444365
-0.43861
-0.431484
-0.423023
-0.413267
-0.402265
-0.390071
-0.376745
-0.362353
-0.346981
-0.330747
-0.313833
-0.296521
-0.279194
-0.262194
-0.245361
-0.227089
-0.204642
-0.180383
-0.167684
-0.168943
-0.114137
-0.11424
-0.118537
-0.128361
-0.142906
-0.161715
-0.183907
-0.208108
-0.232859
-0.256996
-0.27983
-0.301107
-0.320839
-0.339132
-0.356077
-0.371712
-0.386029
-0.398998
-0.410586
-0.420765
-0.429511
-0.436807
-0.442641
-0.447003
-0.449888
-0.451288
-0.451221
-0.449723
-0.446742
-0.442313
-0.436463
-0.429221
-0.420625
-0.410725
-0.399578
-0.387254
-0.373825
-0.359368
-0.343978
-0.327784
-0.310985
-0.293873
-0.276857
-0.260362
-0.244509
-0.228197
-0.208604
-0.186169
-0.172983
-0.17353
-0.114005
-0.113649
-0.117203
-0.12636
-0.140301
-0.158468
-0.180049
-0.203771
-0.228229
-0.25225
-0.275091
-0.296437
-0.316254
-0.334628
-0.351651
-0.367368
-0.38178
-0.394859
-0.40657
-0.416877
-0.425752
-0.433169
-0.439111
-0.443562
-0.446515
-0.44796
-0.447899
-0.446382
-0.443343
-0.438823
-0.432853
-0.425465
-0.416699
-0.406611
-0.395265
-0.382735
-0.369104
-0.354465
-0.338934
-0.322667
-0.305871
-0.288853
-0.272042
-0.25592
-0.240801
-0.22604
-0.209065
-0.1888
-0.175736
-0.17566
-0.11271
-0.111965
-0.114716
-0.123017
-0.136185
-0.153581
-0.17443
-0.197564
-0.221654
-0.245525
-0.26838
-0.289828
-0.309778
-0.328287
-0.345439
-0.361286
-0.375838
-0.389072
-0.400949
-0.411428
-0.420472
-0.428049
-0.434133
-0.438703
-0.441745
-0.443247
-0.443201
-0.441662
-0.438561
-0.433933
-0.427819
-0.420249
-0.411269
-0.400936
-0.389323
-0.376511
-0.362591
-0.347672
-0.331882
-0.315394
-0.298449
-0.281387
-0.26466
-0.248778
-0.23419
-0.220609
-0.205923
-0.187967
-0.175575
-0.175007
-0.110513
-0.109478
-0.111412
-0.118662
-0.130846
-0.147292
-0.16724
-0.189627
-0.213214
-0.236848
-0.259679
-0.281237
-0.301358
-0.320054
-0.337391
-0.353426
-0.368173
-0.381613
-0.393706
-0.404406
-0.413666
-0.421447
-0.427713
-0.432436
-0.435595
-0.437174
-0.437159
-0.435598
-0.432432
-0.427686
-0.421403
-0.413619
-0.404378
-0.393745
-0.381794
-0.368614
-0.354306
-0.33899
-0.322813
-0.30597
-0.28873
-0.271463
-0.254663
-0.238876
-0.224633
-0.211903
-0.199138
-0.183463
-0.172175
-0.17127
-0.107689
-0.106475
-0.107629
-0.113666
-0.12462
-0.139885
-0.158714
-0.180135
-0.203021
-0.226264
-0.248981
-0.270621
-0.290932
-0.309864
-0.327452
-0.34374
-0.358747
-0.372455
-0.384825
-0.395802
-0.405334
-0.41337
-0.419864
-0.424781
-0.428091
-0.429774
-0.429811
-0.428234
-0.425006
-0.420134
-0.413663
-0.405631
-0.396087
-0.385094
-0.372733
-0.359096
-0.344294
-0.328459
-0.311755
-0.294404
-0.276707
-0.259075
-0.242045
-0.226199
-0.212122
-0.199941
-0.188715
-0.175162
-0.165247
-0.164164
-0.104502
-0.10322
-0.103683
-0.108405
-0.11788
-0.131688
-0.149122
-0.169301
-0.191219
-0.213846
-0.236294
-0.257938
-0.278432
-0.29764
-0.315545
-0.332168
-0.347516
-0.361571
-0.37429
-0.385616
-0.395484
-0.403834
-0.410612
-0.415771
-0.419274
-0.421093
-0.421206
-0.419631
-0.416346
-0.411344
-0.404668
-0.39636
-0.38647
-0.37506
-0.362214
-0.348029
-0.332623
-0.31614
-0.298765
-0.280746
-0.262423
-0.244253
-0.226823
-0.210766
-0.196709
-0.184789
-0.174707
-0.16302
-0.154539
-0.153412
-0.101184
-0.0999291
-0.0998306
-0.103229
-0.111015
-0.123059
-0.138771
-0.157371
-0.177986
-0.199697
-0.221646
-0.243156
-0.263781
-0.283288
-0.301581
-0.31863
-0.33442
-0.348921
-0.362083
-0.373842
-0.384126
-0.392864
-0.399991
-0.40545
-0.409195
-0.411191
-0.411411
-0.409859
-0.406529
-0.401397
-0.394504
-0.385896
-0.375619
-0.363737
-0.350333
-0.335508
-0.319386
-0.302125
-0.283931
-0.265084
-0.245964
-0.227081
-0.209079
-0.192645
-0.178458
-0.166584
-0.157236
-0.147071
-0.139857
-0.13875
-0.0979188
-0.096758
-0.0962582
-0.0984229
-0.104395
-0.11438
-0.127998
-0.144622
-0.163533
-0.183953
-0.205095
-0.226259
-0.246914
-0.266711
-0.28545
-0.303028
-0.31938
-0.334451
-0.348175
-0.360476
-0.371274
-0.380488
-0.388042
-0.393869
-0.397916
-0.400139
-0.400505
-0.399006
-0.395647
-0.390392
-0.383277
-0.374346
-0.363647
-0.35124
-0.337207
-0.321651
-0.304706
-0.28654
-0.267384
-0.247551
-0.227471
-0.207709
-0.18897
-0.171994
-0.157498
-0.145528
-0.136491
-0.127432
-0.121093
-0.119943
-0.0948339
-0.0938073
-0.0930724
-0.0941865
-0.0983364
-0.106021
-0.117157
-0.131356
-0.148101
-0.166787
-0.186737
-0.207271
-0.227787
-0.24782
-0.267046
-0.285253
-0.302304
-0.318092
-0.332524
-0.345504
-0.356939
-0.366738
-0.374814
-0.381094
-0.385513
-0.388021
-0.388582
-0.387173
-0.38381
-0.378444
-0.371105
-0.361837
-0.350685
-0.337705
-0.322979
-0.306611
-0.288741
-0.269555
-0.249306
-0.228348
-0.207161
-0.18637
-0.166741
-0.149063
-0.13408
-0.121848
-0.112724
-0.104276
-0.0982302
-0.0967474
-0.0920068
-0.0911328
-0.0903135
-0.090618
-0.0930614
-0.0983044
-0.106596
-0.117888
-0.131952
-0.148405
-0.16672
-0.18627
-0.206413
-0.226573
-0.246286
-0.265211
-0.283099
-0.299771
-0.315081
-0.328904
-0.341127
-0.351644
-0.360359
-0.367191
-0.372067
-0.374932
-0.375745
-0.374474
-0.371135
-0.365679
-0.358125
-0.348513
-0.336885
-0.323296
-0.307824
-0.290577
-0.271702
-0.2514
-0.229954
-0.207757
-0.185343
-0.163398
-0.142746
-0.124215
-0.108567
-0.0958207
-0.0862811
-0.077821
-0.0713141
-0.0688183
-0.0894698
-0.0887571
-0.0879743
-0.0877225
-0.0886696
-0.0914499
-0.0966056
-0.104521
-0.115363
-0.129049
-0.145243
-0.163408
-0.182887
-0.203008
-0.223163
-0.242858
-0.261711
-0.279434
-0.295808
-0.31066
-0.323844
-0.335236
-0.344729
-0.352231
-0.357666
-0.360973
-0.362106
-0.361032
-0.357755
-0.352239
-0.344488
-0.334536
-0.322425
-0.308207
-0.29196
-0.273793
-0.253861
-0.232385
-0.209677
-0.18617
-0.16245
-0.139259
-0.11747
-0.0979367
-0.0814159
-0.0678488
-0.0575802
-0.0483242
-0.0405414
-0.0357511
-0.0872143
-0.086676
-0.0860189
-0.0854301
-0.085123
-0.0855231
-0.0873639
-0.0915
-0.0986059
-0.108993
-0.122577
-0.138939
-0.157431
-0.177299
-0.197799
-0.218272
-0.238179
-0.257102
-0.274721
-0.290792
-0.305124
-0.317565
-0.32799
-0.336299
-0.342409
-0.346255
-0.347791
-0.346981
-0.343819
-0.338288
-0.330371
-0.320101
-0.307522
-0.292684
-0.275663
-0.256575
-0.235585
-0.212931
-0.188952
-0.164121
-0.139066
-0.114572
-0.0915411
-0.0708331
-0.0531799
-0.0384451
-0.0270771
-0.0161034
-0.00654423
0.00251849
-0.0851846
-0.0848507
-0.084388
-0.0836105
-0.0822445
-0.0803953
-0.0788675
-0.0789567
-0.0819137
-0.08854
-0.09907
-0.113239
-0.130426
-0.149809
-0.170515
-0.191721
-0.212721
-0.232948
-0.25196
-0.269422
-0.28508
-0.298743
-0.310261
-0.31952
-0.326431
-0.330927
-0.332959
-0.332492
-0.329515
-0.324025
-0.315996
-0.305459
-0.292456
-0.277044
-0.2593
-0.239346
-0.217358
-0.193592
-0.168411
-0.142312
-0.115949
-0.0901228
-0.0657294
-0.0436048
-0.0244354
-0.00804277
0.00500719
0.018757
0.0298437
0.0458101
-0.0832611
-0.0831858
-0.0829746
-0.0820616
-0.0797192
-0.0757308
-0.0708925
-0.06686
-0.0654535
-0.0680193
-0.0751723
-0.0868429
-0.102457
-0.121138
-0.141893
-0.163743
-0.185818
-0.20739
-0.227885
-0.246861
-0.263987
-0.279019
-0.291774
-0.302119
-0.309956
-0.315214
-0.317843
-0.317811
-0.315103
-0.309729
-0.301667
-0.290942
-0.277604
-0.261713
-0.243355
-0.22266
-0.199814
-0.175088
-0.148855
-0.12162
-0.0940307
-0.0668574
-0.0409415
-0.0170409
0.00424594
0.0231554
0.0390888
0.0570745
0.069579
0.0962203
-0.081253
-0.081501
-0.0815727
-0.0804682
-0.0770921
-0.0710132
-0.0630135
-0.0550127
-0.0493141
-0.0477873
-0.0514536
-0.0604745
-0.0743493
-0.092165
-0.112822
-0.1352
-0.158274
-0.181163
-0.203155
-0.223695
-0.242367
-0.258863
-0.272958
-0.284495
-0.293362
-0.299482
-0.302806
-0.303305
-0.300964
-0.295797
-0.287805
-0.27701
-0.263467
-0.247248
-0.228451
-0.207213
-0.183732
-0.158281
-0.131228
-0.103053
-0.0743505
-0.0458076
-0.0181448
0.00802679
0.0322736
0.0550201
0.0758709
0.100657
0.11781
0.161077
-0.0789522
-0.0795508
-0.0799004
-0.0784397
-0.0738307
-0.0656379
-0.0547141
-0.0431416
-0.0335588
-0.0282546
-0.0286231
-0.035069
-0.047191
-0.0640656
-0.0845125
-0.107294
-0.131247
-0.155354
-0.178772
-0.200839
-0.221047
-0.239022
-0.254494
-0.267273
-0.27723
-0.284284
-0.288382
-0.289499
-0.287626
-0.282776
-0.274974
-0.264251
-0.250676
-0.234332
-0.215328
-0.193811
-0.169979
-0.144095
-0.116497
-0.0875992
-0.0578919
-0.0279083
0.00182732
0.0309338
0.0592317
0.0874671
0.115645
0.150858
0.18077
0.245699
-0.0764681
-0.0773017
-0.0777727
-0.0757006
-0.0696422
-0.0592414
-0.0456465
-0.0311034
-0.0183595
-0.0099457
-0.00753799
-0.0117517
-0.0222968
-0.0382704
-0.0584501
-0.0815152
-0.106195
-0.131357
-0.156051
-0.179513
-0.201154
-0.220532
-0.237331
-0.251329
-0.262379
-0.270387
-0.2753
-0.277099
-0.275781
-0.271366
-0.263887
-0.253389
-0.239959
-0.223706
-0.204746
-0.183226
-0.159333
-0.1333
-0.105405
-0.0759627
-0.0453021
-0.013728
0.0185407
0.0515035
0.085408
0.121447
0.159936
0.209644
0.257279
0.336076
-0.0750839
-0.0757604
-0.075852
-0.0725962
-0.0647094
-0.0520931
-0.0361019
-0.0192384
-0.0042576
0.0063673
0.0107701
0.00819395
-0.00114668
-0.0163864
-0.0363041
-0.0595413
-0.0847615
-0.110753
-0.136482
-0.161107
-0.183967
-0.204567
-0.222544
-0.237646
-0.249706
-0.258621
-0.264334
-0.266829
-0.266112
-0.262216
-0.255192
-0.245083
-0.231962
-0.215961
-0.197223
-0.175894
-0.152138
-0.12614
-0.0980984
-0.0681993
-0.036571
-0.00320955
0.0321256
0.0701086
0.111913
0.159877
0.21508
0.286296
0.346837
0.422003
-0.0792863
-0.078556
-0.0769013
-0.0712601
-0.0607141
-0.0455241
-0.027301
-0.00863767
0.00771062
0.0195571
0.025164
0.0235604
0.0149475
0.000168722
-0.0195785
-0.0429331
-0.0685305
-0.0951155
-0.121602
-0.147094
-0.170883
-0.192428
-0.211334
-0.227321
-0.240207
-0.249877
-0.256274
-0.25938
-0.259208
-0.255799
-0.24921
-0.239526
-0.226821
-0.211166
-0.192702
-0.171598
-0.148005
-0.122064
-0.0938926
-0.0635404
-0.0309108
0.00437191
0.0431666
0.0871972
0.139394
0.204997
0.288824
0.400917
0.493435
0.601235
-0.102697
-0.0948302
-0.0863343
-0.0755218
-0.0611724
-0.0429057
-0.0223706
-0.00213186
0.0153874
0.027997
0.0340405
0.0328539
0.0246415
0.0101992
-0.00932033
-0.0325896
-0.0582588
-0.0850681
-0.111912
-0.137866
-0.16219
-0.184313
-0.203812
-0.220387
-0.233839
-0.244043
-0.250936
-0.254497
-0.254741
-0.251709
-0.245463
-0.236083
-0.22366
-0.208297
-0.19011
-0.169222
-0.145771
-0.119868
-0.0915639
-0.060784
-0.0272141
0.00990108
0.0520879
0.10228
0.165624
0.25164
0.373035
0.553355
0.765678
1.10615
-0.189484
-0.111682
-0.0800505
-0.0708039
-0.0575477
-0.0382514
-0.0166882
0.00414452
0.0217624
0.0340196
0.0395388
0.0378558
0.0292543
0.014558
-0.00508764
-0.0283916
-0.0540494
-0.0808394
-0.107682
-0.133668
-0.158061
-0.180288
-0.199921
-0.216653
-0.230277
-0.240663
-0.247742
-0.251492
-0.251923
-0.249077
-0.243014
-0.233814
-0.221568
-0.20638
-0.188358
-0.167622
-0.144293
-0.118453
-0.090099
-0.0590567
-0.0248478
0.0135639
0.0581837
0.11277
0.183902
0.283954
0.432844
0.678223
1.07764
1.82717
)
;

boundaryField
{
    movingWall
    {
        type            zeroGradient;
    }
    fixedWalls
    {
        type            zeroGradient;
    }
    frontAndBack
    {
        type            empty;
    }
}


// ************************************************************************* //
