/*--------------------------------*- C++ -*----------------------------------*\
  =========                 |
  \\      /  F ield         | OpenFOAM: The Open Source CFD Toolbox
   \\    /   O peration     | Website:  https://openfoam.org
    \\  /    A nd           | Version:  7
     \\/     M anipulation  |
\*---------------------------------------------------------------------------*/
FoamFile
{
    version     2.0;
    format      ascii;
    class       surfaceScalarField;
    location    "300";
    object      phi;
}
// * * * * * * * * * * * * * * * * * * * * * * * * * * * * * * * * * * * * * //

dimensions      [0 3 -1 0 0 0 0];

internalField   nonuniform List<scalar> 
4900
(
1.70007e-06
-1.71887e-06
6.23964e-06
-4.53873e-06
1.1739e-05
-5.50326e-06
1.65253e-05
-4.79099e-06
1.97687e-05
-3.24748e-06
2.14017e-05
-1.63633e-06
2.17732e-05
-3.74396e-07
2.12592e-05
5.11556e-07
2.00003e-05
1.25662e-06
1.78289e-05
2.16908e-06
1.43491e-05
3.47764e-06
9.07137e-06
5.27565e-06
1.50205e-06
7.56739e-06
-8.81368e-06
1.0314e-05
-2.22278e-05
1.34125e-05
-3.89047e-05
1.66755e-05
-5.87504e-05
1.98443e-05
-8.13299e-05
2.25783e-05
-0.000105804
2.44734e-05
-0.000130915
2.51099e-05
-0.000155032
2.41159e-05
-0.000176264
2.1231e-05
-0.000192623
1.63582e-05
-0.000202226
9.60182e-06
-0.000203538
1.31174e-06
-0.000195605
-7.93418e-06
-0.000178165
-1.74406e-05
-0.000151725
-2.64401e-05
-0.000117566
-3.41597e-05
-7.77018e-05
-3.98648e-05
-3.4776e-05
-4.29264e-05
8.09946e-06
-4.28761e-05
4.76552e-05
-3.95563e-05
8.10146e-05
-3.33601e-05
0.000105979
-2.49648e-05
0.000121253
-1.52752e-05
0.000126692
-5.43954e-06
0.000123348
3.34323e-06
0.000113205
1.01425e-05
9.86528e-05
1.45521e-05
8.2042e-05
1.66103e-05
6.53244e-05
1.67171e-05
4.98613e-05
1.54627e-05
3.64005e-05
1.34603e-05
2.51799e-05
1.122e-05
1.60986e-05
9.08084e-06
8.93335e-06
7.16471e-06
3.61664e-06
5.31617e-06
5.12677e-07
3.10345e-06
5.1257e-07
4.48569e-06
-6.2013e-06
1.38727e-05
-1.3931e-05
2.43366e-05
-1.59774e-05
3.29137e-05
-1.33788e-05
3.79941e-05
-8.33731e-06
3.91897e-05
-2.84003e-06
3.67825e-05
2.02585e-06
3.10754e-05
6.21231e-06
2.19536e-05
1.03724e-05
8.78126e-06
1.53356e-05
-9.4464e-06
2.16998e-05
-3.38358e-05
2.966e-05
-6.52893e-05
3.90164e-05
-0.000104246
4.92668e-05
-0.000150472
5.96347e-05
-0.000202897
6.90979e-05
-0.000259563
7.65077e-05
-0.000317747
8.07595e-05
-0.000374239
8.09637e-05
-0.000425697
7.65656e-05
-0.000468977
6.73943e-05
-0.000501398
5.36509e-05
-0.000520905
3.58636e-05
-0.000526153
1.48485e-05
-0.000516593
-8.24921e-06
-0.000492318
-3.22108e-05
-0.000453958
-5.58013e-05
-0.000402707
-7.76925e-05
-0.000340381
-9.64869e-05
-0.000269442
-0.000110805
-0.000192971
-0.000119398
-0.000114541
-0.000121307
-3.80322e-05
-0.000116067
3.24799e-05
-0.000103874
9.32761e-05
-8.57625e-05
0.000141523
-6.35232e-05
0.000175276
-3.91938e-05
0.000193722
-1.5104e-05
0.000197421
6.44231e-06
0.000188441
2.35301e-05
0.000169917
3.51338e-05
0.000145437
4.1196e-05
0.000118419
4.24788e-05
9.1646e-05
4.02323e-05
6.70021e-05
3.58628e-05
4.54911e-05
3.05905e-05
2.75161e-05
2.51384e-05
1.337e-05
1.9461e-05
3.7684e-06
1.27038e-05
4.28084e-06
5.997e-06
-1.21985e-05
1.73506e-05
-2.52876e-05
2.88003e-05
-2.74342e-05
3.67869e-05
-2.13738e-05
3.94508e-05
-1.10095e-05
3.62041e-05
3.99037e-07
2.69805e-05
1.12425e-05
1.15646e-05
2.16219e-05
-1.08198e-05
3.27509e-05
-4.14593e-05
4.59699e-05
-8.17174e-05
6.19534e-05
-0.000132514
8.0453e-05
-0.000193904
0.000100403
-0.000264762
0.000120122
-0.000342718
0.000137589
-0.000424393
0.000150771
-0.000505853
0.000157966
-0.000583137
0.000158041
-0.000652699
0.000150524
-0.000711683
0.000135549
-0.000758018
0.000113728
-0.000790361
8.59928e-05
-0.000807962
5.34637e-05
-0.000810482
1.73667e-05
-0.000797794
-2.09378e-05
-0.000769915
-6.00908e-05
-0.000727148
-9.85688e-05
-0.000670216
-0.000134626
-0.000600341
-0.000166363
-0.000519351
-0.000191796
-0.000429751
-0.000208999
-0.000334724
-0.000216335
-0.000238045
-0.000212747
-0.000143851
-0.000198069
-5.63724e-05
-0.000173242
2.04041e-05
-0.000140301
8.34754e-05
-0.000102266
0.000131036
-6.26663e-05
0.00016211
-2.46325e-05
0.00017682
8.81855e-06
0.000176679
3.52741e-05
0.000164469
5.34047e-05
0.000143731
6.32158e-05
0.000118147
6.58147e-05
9.09881e-05
6.30209e-05
6.47416e-05
5.68359e-05
4.1082e-05
4.87968e-05
2.12242e-05
3.93174e-05
6.61484e-06
2.73122e-05
1.08955e-05
6.5118e-06
-1.87091e-05
1.75843e-05
-3.63629e-05
2.68973e-05
-3.67529e-05
3.06373e-05
-2.5121e-05
2.70008e-05
-7.3806e-06
1.52922e-05
1.21005e-05
-5.03237e-06
3.15606e-05
-3.49991e-05
5.15829e-05
-7.61396e-05
7.38866e-05
-0.00012993
9.97559e-05
-0.000197086
0.000129106
-0.000277002
0.000160366
-0.000367518
0.000190916
-0.000465111
0.000217714
-0.000565444
0.000237919
-0.000664054
0.000249379
-0.000756968
0.000250878
-0.00084106
0.000242133
-0.000914143
0.000223606
-0.00097484
0.000196244
-0.00102235
0.000161236
-0.0010562
0.000119845
-0.00107607
7.3331e-05
-0.00108165
2.29406e-05
-0.00107254
-3.00399e-05
-0.00104846
-8.41781e-05
-0.00100923
-0.000137801
-0.000954907
-0.000188946
-0.000885896
-0.000235375
-0.000803101
-0.000274592
-0.000708126
-0.000303974
-0.000603436
-0.000321026
-0.000492428
-0.000323756
-0.000379359
-0.000311139
-0.000269059
-0.000283542
-0.000166395
-0.000242966
-7.57009e-05
-0.000192961
-2.86009e-07
-0.000138082
5.82453e-05
-8.31652e-05
9.95855e-05
-3.25229e-05
0.000123989
1.0869e-05
0.000132729
4.46643e-05
0.000128292
6.7651e-05
0.000113967
8.01389e-05
9.33324e-05
8.36542e-05
6.97553e-05
8.04119e-05
4.6062e-05
7.24889e-05
2.46152e-05
6.07631e-05
7.92308e-06
4.40031e-05
1.88185e-05
6.19568e-06
-2.49057e-05
1.48418e-05
-4.5012e-05
1.90751e-05
-4.09911e-05
1.52399e-05
-2.12921e-05
1.79138e-06
6.06121e-06
-2.2162e-05
3.60477e-05
-5.78085e-05
6.72017e-05
-0.000106881
0.000100651
-0.000170997
0.000137999
-0.000250694
0.000179449
-0.000344747
0.000223157
-0.000450096
0.000265713
-0.000562321
0.000303138
-0.000676454
0.000331845
-0.000787814
0.000349279
-0.000892597
0.000354161
-0.0009881
0.00034638
-0.00107264
0.000326673
-0.0011453
0.000296264
-0.00120563
0.000256568
-0.0012534
0.00020901
-0.00128849
0.000154939
-0.00131079
9.56239e-05
-0.00132013
3.22773e-05
-0.00131624
-3.39266e-05
-0.00129877
-0.000101651
-0.00126722
-0.000169346
-0.00122103
-0.000235141
-0.00115964
-0.000296769
-0.00108273
-0.000351497
-0.000990528
-0.000396179
-0.000884093
-0.000427461
-0.000765685
-0.000442164
-0.000638967
-0.000437858
-0.000508978
-0.000413532
-0.000381738
-0.000370207
-0.00026346
-0.00031124
-0.000159478
-0.000242065
-7.33566e-05
-0.000169288
-6.57614e-06
-9.93045e-05
4.13855e-05
-3.7094e-05
7.17817e-05
1.42669e-05
8.62114e-05
5.32201e-05
8.71907e-05
7.91585e-05
7.792e-05
9.29238e-05
6.19077e-05
9.64232e-05
4.26167e-05
9.17788e-05
2.33481e-05
8.00305e-05
7.58427e-06
5.9766e-05
2.64026e-05
4.87002e-06
-2.97763e-05
8.77183e-06
-4.89175e-05
5.06522e-06
-3.72893e-05
-9.29118e-06
-6.94133e-06
-3.56441e-05
3.24086e-05
-7.51639e-05
7.55627e-05
-0.000129575
0.000121609
-0.000200615
0.000171688
-0.000288808
0.000226189
-0.000392581
0.00028322
-0.000508237
0.000338811
-0.000630672
0.000388147
-0.000754419
0.000426883
-0.000874574
0.000451998
-0.000987358
0.000462061
-0.00109025
0.000457051
-0.0011818
0.000437934
-0.00126136
0.000406229
-0.00132876
0.000363663
-0.00138416
0.000311966
-0.0014279
0.000252751
-0.00146042
0.000187461
-0.00148216
0.000117358
-0.00149343
4.35491e-05
-0.00149435
-3.3012e-05
-0.00148467
-0.000111327
-0.00146378
-0.000190235
-0.00143063
-0.000268292
-0.00138382
-0.000343581
-0.00132176
-0.000413554
-0.00124299
-0.000474954
-0.00114657
-0.000523883
-0.00103266
-0.000556071
-0.00090309
-0.00056743
-0.000761769
-0.000554853
-0.000614787
-0.000517189
-0.00046991
-0.000456118
-0.000335402
-0.000376574
-0.000218368
-0.000286323
-0.000123173
-0.0001945
-5.08283e-05
-0.00010944
2.72357e-07
-3.68349e-05
3.27355e-05
2.07557e-05
4.91179e-05
6.27749e-05
5.23729e-05
8.96677e-05
4.59091e-05
0.000102886
3.3427e-05
0.00010426
1.87878e-05
9.46687e-05
6.08625e-06
7.24665e-05
3.24888e-05
2.2219e-06
-3.19999e-05
-1.08514e-06
-4.56145e-05
-1.53274e-05
-2.30516e-05
-4.26864e-05
2.0413e-05
-8.43482e-05
7.40662e-05
-0.000141751
0.000132962
-0.000216582
0.000196437
-0.000309483
0.000264586
-0.000418863
0.000335567
-0.00054072
0.000405075
-0.000669465
0.000467554
-0.000799149
0.000517829
-0.00092451
0.000552243
-0.00104156
0.000569048
-0.00114769
0.000568192
-0.00124148
0.000550833
-0.00132237
0.000518833
-0.00139051
0.000474361
-0.00144647
0.000419624
-0.0014912
0.000356693
-0.00152583
0.000287379
-0.00155153
0.000213168
-0.00156939
0.000135211
-0.00158021
5.43735e-05
-0.0015845
-2.87262e-05
-0.00158226
-0.000113569
-0.00157296
-0.000199534
-0.00155543
-0.000285822
-0.00152783
-0.000371178
-0.00148772
-0.000453667
-0.00143221
-0.000530467
-0.00135835
-0.000597745
-0.00126371
-0.000650706
-0.00114722
-0.000683928
-0.00100999
-0.000692078
-0.000856153
-0.000671029
-0.000693055
-0.000619216
-0.000530708
-0.000538921
-0.000380129
-0.000436902
-0.000250841
-0.000323789
-0.000148395
-0.000211887
-7.33238e-05
-0.000111907
-2.23673e-05
-3.02019e-05
8.79733e-06
3.16091e-05
2.40379e-05
7.44259e-05
2.71372e-05
9.97855e-05
2.205e-05
0.000109346
1.29527e-05
0.000103765
4.18312e-06
8.12354e-05
3.66718e-05
-1.99629e-06
-3.00049e-05
-1.48831e-05
-3.27319e-05
-4.17295e-05
3.79062e-06
-8.38142e-05
6.24939e-05
-0.000142149
0.000132398
-0.000218121
0.000208931
-0.000312478
0.000290791
-0.000423879
0.000375986
-0.000548375
0.00046006
-0.000680115
0.000536814
-0.000812698
0.000600136
-0.000940374
0.000645503
-0.00105873
0.000670603
-0.00116487
0.000675183
-0.00125721
0.000660527
-0.00133525
0.000628879
-0.00139938
0.000582958
-0.00145062
0.000525603
-0.0014905
0.0004595
-0.00152079
0.000386984
-0.00154333
0.000309923
-0.00155984
0.000229678
-0.00157178
0.00014714
-0.00158023
6.28296e-05
-0.00158595
-2.30134e-05
-0.00158918
-0.000110331
-0.00158969
-0.000199027
-0.00158656
-0.000288952
-0.00157813
-0.000379613
-0.00156184
-0.000469954
-0.00153424
-0.000558065
-0.0014911
-0.000640888
-0.00142782
-0.000713984
-0.00134023
-0.000771521
-0.00122567
-0.000806637
-0.00108435
-0.000812354
-0.000920478
-0.000783085
-0.000742858
-0.000716541
-0.000564186
-0.000615575
-0.000398821
-0.000489154
-0.000259199
-0.00035151
-0.000152173
-0.000218933
-7.74799e-05
-0.000104896
-2.97099e-05
-1.61619e-05
-2.4387e-06
4.71536e-05
9.71304e-06
8.76326e-05
1.15639e-05
0.000107494
7.70601e-06
0.000107622
2.5749e-06
8.63654e-05
3.92466e-05
-7.84638e-06
-2.21605e-05
-3.21693e-05
-8.41299e-06
-7.29492e-05
4.4567e-05
-0.000130428
0.00011997
-0.000205419
0.000207386
-0.000298622
0.000302131
-0.000409089
0.000401257
-0.000533252
0.000500148
-0.000665291
0.000592098
-0.000798457
0.000669979
-0.000926451
0.000728129
-0.0010443
0.000763348
-0.00114863
0.000774934
-0.00123762
0.000764169
-0.00131075
0.000733661
-0.00136863
0.000686756
-0.00141271
0.000627038
-0.00144504
0.000557937
-0.00146797
0.000482426
-0.00148383
0.000402843
-0.00149475
0.000320845
-0.00150253
0.000237459
-0.0015086
0.000153207
-0.00151401
6.82409e-05
-0.0015195
-1.75251e-05
-0.00152548
-0.000104351
-0.00153202
-0.000192495
-0.00153872
-0.000282248
-0.0015446
-0.000373734
-0.0015478
-0.000466752
-0.00154537
-0.000560503
-0.00153304
-0.000653211
-0.00150535
-0.00074168
-0.00145599
-0.000820885
-0.00137881
-0.000883816
-0.00126932
-0.000921841
-0.00112654
-0.000925861
-0.000954754
-0.000888331
-0.00076438
-0.00080595
-0.000571246
-0.000682288
-0.000393547
-0.000529209
-0.00024685
-0.00036563
-0.000138987
-0.00021276
-6.81621e-05
-8.69879e-05
-2.62333e-05
5.22373e-06
-4.54499e-06
6.59433e-05
3.72562e-06
9.92227e-05
4.21072e-06
0.000107135
1.69455e-06
8.88809e-05
4.0941e-05
-1.50483e-05
-7.11349e-06
-5.19484e-05
2.84834e-05
-0.000106931
9.95471e-05
-0.000179306
0.000192342
-0.000269397
0.000297476
-0.000376618
0.000409351
-0.000498041
0.000522679
-0.000628221
0.000630326
-0.00076028
0.000724156
-0.000887413
0.00079711
-0.001004
0.00084471
-0.00110609
0.000865442
-0.0011915
0.000860346
-0.00125964
0.0008323
-0.00131126
0.000785287
-0.00134824
0.000723729
-0.00137311
0.000651915
-0.00138873
0.000573557
-0.00139784
0.000491533
-0.00140282
0.000407822
-0.00140558
0.000323598
-0.00140753
0.000239412
-0.00140971
0.000155382
-0.00141282
7.13578e-05
-0.00141739
-1.29537e-05
-0.00142381
-9.79322e-05
-0.00143235
-0.000183957
-0.00144314
-0.000271457
-0.00145602
-0.000360857
-0.00147026
-0.000452518
-0.00148419
-0.000546566
-0.00149482
-0.000642583
-0.0014974
-0.0007391
-0.00148535
-0.000832936
-0.00145065
-0.00091852
-0.00138499
-0.0009875
-0.00128178
-0.00102907
-0.00113869
-0.00103142
-0.000960089
-0.00098455
-0.00075841
-0.000883967
-0.000553147
-0.000734474
-0.000366726
-0.000552051
-0.000217655
-0.000361831
-0.000113762
-0.000190881
-5.05036e-05
-5.80354e-05
-1.65518e-05
3.19905e-05
-1.41697e-06
8.40868e-05
2.68853e-06
0.000103029
1.63249e-06
8.99359e-05
4.25734e-05
-2.30978e-05
1.59826e-05
-7.26966e-05
7.80795e-05
-0.000141069
0.000167918
-0.000226677
0.000277948
-0.000328958
0.000399756
-0.000445732
0.000526123
-0.000572281
0.000649226
-0.000701941
0.000759986
-0.000827564
0.000849779
-0.000942879
0.000912424
-0.00104328
0.00094511
-0.00112608
0.000948243
-0.00119047
0.000924737
-0.00123731
0.000879137
-0.00126877
0.000816748
-0.00128788
0.000742833
-0.00129794
0.000661978
-0.00130208
0.000577696
-0.00130288
0.000492336
-0.00130227
0.000407209
-0.00130153
0.000322856
-0.00130144
0.000239324
-0.00130246
0.000156399
-0.00130485
7.37467e-05
-0.00130882
-8.98661e-06
-0.00131461
-9.21435e-05
-0.00132253
-0.000176033
-0.001333
-0.000260988
-0.00134643
-0.000347422
-0.0013631
-0.000435848
-0.00138281
-0.000526861
-0.00140441
-0.000620989
-0.00142516
-0.000718342
-0.00144015
-0.000817954
-0.00144184
-0.000916828
-0.00142047
-0.00100887
-0.0013654
-0.00108413
-0.00126773
-0.0011291
-0.00112372
-0.00112856
-0.000938167
-0.00106952
-0.000726149
-0.000946492
-0.000511579
-0.000766622
-0.000321374
-0.000552036
-0.000176152
-0.000336104
-8.19138e-05
-0.000152274
-2.98303e-05
-2.00937e-05
-5.52277e-06
5.97784e-05
2.43171e-06
9.50735e-05
2.16469e-06
9.02024e-05
4.47379e-05
-3.12463e-05
4.72281e-05
-9.25973e-05
0.000139428
-0.000172625
0.000247944
-0.000268823
0.000374145
-0.000379486
0.000510418
-0.000500881
0.000647517
-0.00062698
0.000775325
-0.000750607
0.000883612
-0.000864948
0.000964119
-0.00096467
0.00101215
-0.00104645
0.00102689
-0.00110907
0.00101087
-0.0011533
0.000968965
-0.00118149
0.000907334
-0.00119706
0.000832313
-0.00120375
0.000749526
-0.00120506
0.000663286
-0.00120379
0.000576419
-0.00120187
0.000490418
-0.00120046
0.000405801
-0.00120011
0.000322498
-0.00120095
0.000240169
-0.00120296
0.000158407
-0.00120605
7.68361e-05
-0.00121019
-4.85091e-06
-0.00121545
-8.68841e-05
-0.00122205
-0.000169426
-0.00123041
-0.000252631
-0.0012411
-0.000336728
-0.00125487
-0.000422082
-0.00127246
-0.000509274
-0.00129431
-0.000599138
-0.00131998
-0.000692666
-0.00134731
-0.000790629
-0.00137139
-0.000892749
-0.0013839
-0.000996357
-0.00137327
-0.00109477
-0.00132633
-0.00117603
-0.00123174
-0.00122315
-0.00108457
-0.00121669
-0.000890757
-0.00114031
-0.00066915
-0.00098823
-0.000449027
-0.000772159
-0.000261688
-0.000523444
-0.000128001
-0.000285961
-4.93659e-05
-9.87298e-05
-1.14212e-05
2.18329e-05
2.08305e-06
8.15687e-05
2.85765e-06
8.94267e-05
4.75955e-05
-3.86195e-05
8.58465e-05
-0.000109926
0.000210733
-0.000199122
0.00033714
-0.000302624
0.000477645
-0.000417527
0.00062532
-0.000538836
0.000768825
-0.000659796
0.000896285
-0.000773313
0.000997128
-0.00087335
0.00106416
-0.000955799
0.00109459
-0.00101882
0.00108991
-0.00106283
0.00105487
-0.00109015
0.00099628
-0.00110439
0.00092158
-0.0011097
0.00083762
-0.00110993
0.000749755
-0.00110813
0.000661486
-0.00110632
0.000574611
-0.00110557
0.000489669
-0.00110624
0.000406468
-0.00110825
0.00032451
-0.00111135
0.000243267
-0.00111525
0.000162303
-0.00111971
8.13014e-05
-0.00112462
5.50454e-08
-0.00112995
-8.15581e-05
-0.00113579
-0.000163577
-0.00114241
-0.000246021
-0.0011502
-0.00032893
-0.00115986
-0.000412428
-0.00117231
-0.000496822
-0.00118872
-0.00058273
-0.00121017
-0.000671213
-0.00123704
-0.00076376
-0.00126787
-0.000861918
-0.00129798
-0.000966254
-0.00131825
-0.00107449
-0.00131515
-0.00117913
-0.00127278
-0.00126552
-0.00117737
-0.00131209
-0.00102345
-0.00129423
-0.000819393
-0.00119229
-0.000589478
-0.00100207
-0.000369345
-0.000743577
-0.000193666
-0.00046164
-8.01404e-05
-0.000212256
-2.21007e-05
-3.62073e-05
1.53196e-07
5.93136e-05
3.23944e-06
8.63401e-05
5.08348e-05
-4.44544e-05
0.000130301
-0.000123263
0.00028954
-0.000218664
0.00043254
-0.000325935
0.000584916
-0.000441095
0.00074048
-0.000558312
0.000886041
-0.000670644
0.00100862
-0.000771536
0.00109802
-0.000856033
0.00114865
-0.000921444
0.00116
-0.000967518
0.00113598
-0.000996231
0.00108359
-0.00101119
0.00101124
-0.00101677
0.00092716
-0.00101719
0.000838034
-0.00101579
0.000748354
-0.00101475
0.000660449
-0.00101514
0.000575004
-0.00101721
0.00049174
-0.00102074
0.000409994
-0.00102532
0.000329093
-0.00103057
0.000248513
-0.00103617
0.000167907
-0.00104194
8.70678e-05
-0.00104777
5.88273e-06
-0.00105362
-7.57016e-05
-0.00105954
-0.000157666
-0.00106558
-0.000239979
-0.00107192
-0.000322588
-0.0010789
-0.000405446
-0.00108714
-0.000488579
-0.00109766
-0.000572209
-0.00111192
-0.000656957
-0.0011316
-0.000744084
-0.00115791
-0.000835609
-0.0011902
-0.000933958
-0.00122403
-0.00104067
-0.00124934
-0.00115382
-0.00125031
-0.00126455
-0.00120805
-0.00135435
-0.00110672
-0.00139556
-0.000941511
-0.0013575
-0.000725404
-0.00121818
-0.000490242
-0.000978739
-0.000278489
-0.000673393
-0.00012531
-0.000365435
-3.9795e-05
-0.000121723
-4.49564e-06
2.4014e-05
2.98875e-06
7.88547e-05
5.38235e-05
-4.81878e-05
0.000178488
-0.00013164
0.000372992
-0.000230097
0.000530997
-0.000337707
0.000692525
-0.000449657
0.00085243
-0.000559717
0.000996101
-0.000661206
0.0011101
-0.000748423
0.00118524
-0.000817679
0.00121791
-0.000867767
0.00121009
-0.000899951
0.00116817
-0.000917494
0.00110113
-0.000924795
0.00101854
-0.000926352
0.000928717
-0.000925871
0.000837553
-0.000925801
0.000748283
-0.000927319
0.000661967
-0.000930648
0.000578334
-0.000935476
0.000496567
-0.000941308
0.000415826
-0.000947691
0.000335476
-0.000954304
0.000255125
-0.00096096
0.000174563
-0.000967578
9.36859e-05
-0.000974138
1.24434e-05
-0.000980645
-6.9195e-05
-0.0009871
-0.00015121
-0.000993495
-0.000233585
-0.00099982
-0.000316263
-0.00100611
-0.000399152
-0.00101256
-0.000482135
-0.00101963
-0.000565133
-0.00102833
-0.000648258
-0.00104032
-0.0007321
-0.00105782
-0.000818109
-0.00108288
-0.000908889
-0.00111567
-0.00100789
-0.00115177
-0.00111772
-0.00117979
-0.00123653
-0.00118106
-0.00135308
-0.00113351
-0.00144311
-0.00102007
-0.00147094
-0.00083885
-0.0013994
-0.000610496
-0.00120709
-0.000376612
-0.000907278
-0.000185245
-0.000556802
-6.59189e-05
-0.000241049
-1.24235e-05
-2.94825e-05
1.99348e-06
6.44375e-05
5.58169e-05
-4.94989e-05
0.000227987
-0.000134585
0.000458077
-0.000233023
0.000629435
-0.000337909
0.00079741
-0.000443886
0.000958407
-0.000544722
0.00109694
-0.000634319
0.0011997
-0.000708025
0.00125894
-0.000763472
0.00127335
-0.000800857
0.00124748
-0.000822701
0.00119001
-0.00083311
0.00111154
-0.000836698
0.00102213
-0.000837537
0.000929555
-0.000838458
0.000838474
-0.000840896
0.000750722
-0.000845169
0.000666239
-0.00085094
0.000584105
-0.000857653
0.00050328
-0.000864806
0.000422979
-0.000872065
0.000342735
-0.000879264
0.000262325
-0.000886363
0.000181663
-0.000893392
0.000100714
-0.0009004
1.94522e-05
-0.000907433
-6.21617e-05
-0.000914504
-0.000144139
-0.00092159
-0.000226499
-0.00092862
-0.000309233
-0.000935484
-0.000392288
-0.000942075
-0.000475544
-0.000948391
-0.000558817
-0.000954735
-0.000641914
-0.000962016
-0.000724819
-0.000972057
-0.000808069
-0.000987611
-0.000893335
-0.00101156
-0.000983941
-0.00104471
-0.00108457
-0.00108231
-0.00119893
-0.0011108
-0.00132459
-0.00110789
-0.00144602
-0.00104846
-0.00153037
-0.000916009
-0.00153185
-0.000715173
-0.00140793
-0.000478096
-0.00114435
-0.000257251
-0.000777647
-0.000101259
-0.000397041
-2.37857e-05
-0.000106956
2.6126e-07
4.03897e-05
5.60781e-05
-4.83103e-05
0.000276297
-0.000132085
0.000541852
-0.000227703
0.000725054
-0.000327319
0.000897026
-0.000425316
0.0010564
-0.000515771
0.00118739
-0.000593382
0.00127731
-0.000654613
0.00132017
-0.000698346
0.00131709
-0.000725965
0.00127509
-0.000740859
0.00120491
-0.000747466
0.00111814
-0.000750116
0.00102478
-0.000752097
0.000931537
-0.000755262
0.000841639
-0.000760172
0.000755632
-0.000766567
0.000672634
-0.000773867
0.000591405
-0.000781524
0.000510937
-0.000789177
0.000430632
-0.000796667
0.000350225
-0.00080398
0.000269638
-0.000811182
0.000188865
-0.000818366
0.000107899
-0.000825618
2.67049e-05
-0.000833004
-5.47746e-05
-0.000840554
-0.000136589
-0.000848261
-0.000218791
-0.000856068
-0.000301425
-0.000863851
-0.000384504
-0.000871416
-0.000467979
-0.000878525
-0.000551708
-0.000885
-0.000635438
-0.000890963
-0.000718856
-0.000897234
-0.000801798
-0.000905807
-0.000884761
-0.000919999
-0.000969748
-0.000943504
-0.00106106
-0.000977514
-0.00116492
-0.0010161
-0.00128601
-0.0010423
-0.00141981
-0.00102939
-0.00154329
-0.000950098
-0.00161114
-0.000791998
-0.00156603
-0.000571358
-0.00136499
-0.000335557
-0.00101345
-0.000145533
-0.000587065
-3.89496e-05
-0.00021354
-2.34518e-06
3.78538e-06
5.37329e-05
-4.47488e-05
0.000321046
-0.000124497
0.0006216
-0.000214887
0.000815445
-0.000307258
0.000989397
-0.000395973
0.00114512
-0.00047564
0.00126706
-0.000541853
0.00134353
-0.000592154
0.00137047
-0.000626499
0.00135143
-0.00064713
0.00129573
-0.000657875
0.00121565
-0.000663051
0.00112332
-0.000666356
0.00102809
-0.000670177
0.000935358
-0.000675495
0.000846957
-0.000682262
0.000762399
-0.000689941
0.000680314
-0.00069795
0.000599414
-0.000705886
0.000518874
-0.000713573
0.000438319
-0.000721003
0.000357656
-0.000728262
0.000276899
-0.000735468
0.000196072
-0.000742733
0.000115164
-0.000750145
3.41179e-05
-0.000757772
-4.71464e-05
-0.000765649
-0.000128712
-0.000773788
-0.000210652
-0.000782165
-0.000293048
-0.0007907
-0.000375969
-0.000799235
-0.000459443
-0.000807514
-0.000543428
-0.00081519
-0.000627762
-0.000821928
-0.000712117
-0.000827688
-0.000796038
-0.000833242
-0.000879207
-0.000840844
-0.000962146
-0.000854484
-0.00104742
-0.000878628
-0.00114078
-0.000914288
-0.00125035
-0.000952991
-0.00138111
-0.000972725
-0.00152356
-0.000941921
-0.00164194
-0.000833846
-0.0016741
-0.000645926
-0.00155291
-0.00041229
-0.00124708
-0.000196715
-0.000802641
-5.85543e-05
-0.000351699
-5.89364e-06
-4.88756e-05
4.78392e-05
-3.90934e-05
0.00036014
-0.00011243
0.000694937
-0.000195629
0.000898644
-0.000279333
0.0010731
-0.000358056
0.00122384
-0.000427075
0.00133608
-0.000482891
0.00139934
-0.000523996
0.00141158
-0.000551164
0.0013786
-0.000567136
0.0013117
-0.000575777
0.00122429
-0.000580949
0.00112849
-0.000585572
0.00103271
-0.000591189
0.000940976
-0.000598135
0.000853904
-0.00060603
0.000770295
-0.000614295
0.00068858
-0.000622475
0.000607595
-0.000630349
0.000526749
-0.000637897
0.000445868
-0.00064521
0.00036497
-0.000652421
0.00028411
-0.000659653
0.000203306
-0.000667013
0.000122524
-0.000674576
4.16823e-05
-0.000682402
-3.93196e-05
-0.000690521
-0.000120592
-0.000698953
-0.000202219
-0.000707696
-0.000284303
-0.000716717
-0.000366947
-0.000725924
-0.000450235
-0.000735137
-0.000534215
-0.00074405
-0.000618849
-0.000752224
-0.000703943
-0.000759186
-0.000789075
-0.00076477
-0.000873622
-0.000769799
-0.000957117
-0.00077696
-0.00104026
-0.000791098
-0.00112664
-0.000817287
-0.00122416
-0.000855274
-0.00134312
-0.000891936
-0.00148689
-0.00089843
-0.00163545
-0.000839523
-0.00173301
-0.000694634
-0.0016978
-0.000479335
-0.00146238
-0.000250775
-0.0010312
-8.2733e-05
-0.000519742
-1.03665e-05
-0.000121242
3.74728e-05
-3.17193e-05
0.000391859
-9.66387e-05
0.000759857
-0.000171121
0.000973127
-0.000245214
0.0011472
-0.00031369
0.00129232
-0.000372551
0.00139494
-0.000419144
0.00144593
-0.000452729
0.00144517
-0.000474609
0.00140048
-0.000487682
0.00132477
-0.00049553
0.00123214
-0.000501383
0.00113435
-0.000507378
0.0010387
-0.000514389
0.000947988
-0.00052235
0.000861865
-0.00053077
0.000778715
-0.000539159
0.00069697
-0.000547232
0.000615669
-0.000554926
0.000534444
-0.000562322
0.000453265
-0.000569558
0.000372207
-0.00057677
0.000291324
-0.000584074
0.000210611
-0.000591556
0.000130008
-0.000599282
4.9409e-05
-0.000607299
-3.13007e-05
-0.000615632
-0.000112258
-0.0006243
-0.000193549
-0.000633311
-0.000275292
-0.000642652
-0.000357605
-0.000652281
-0.000440605
-0.000662099
-0.000524396
-0.000671907
-0.00060904
-0.00068135
-0.000694499
-0.0006899
-0.000780525
-0.000696963
-0.000866558
-0.000702313
-0.000951767
-0.000706985
-0.00103559
-0.000714391
-0.00111923
-0.000730428
-0.00120812
-0.000760248
-0.0013133
-0.000800348
-0.00144679
-0.000830093
-0.0016057
-0.000812985
-0.00175012
-0.000714615
-0.00179617
-0.000530162
-0.00164684
-0.000302511
-0.00125885
-0.000110484
-0.000711768
-1.57668e-05
-0.000215959
2.17061e-05
-2.30526e-05
0.000414913
-7.79313e-05
0.000814737
-0.000142562
0.00103776
-0.000206488
0.00121112
-0.000264774
0.0013506
-0.000314143
0.00144431
-0.000352681
0.00148447
-0.000380209
0.00147269
-0.000398279
0.00141855
-0.000409653
0.00133615
-0.000417428
0.00123992
-0.000424139
0.00114106
-0.000431247
0.00104581
-0.000439154
0.000955896
-0.000447601
0.000870313
-0.000456127
0.000787242
-0.000464384
0.000705228
-0.000472242
0.000623528
-0.000479744
0.000541947
-0.000487021
0.000460544
-0.000494221
0.000379408
-0.000501469
0.000298573
-0.000508862
0.000218005
-0.000516475
0.000137623
-0.000524362
5.72986e-05
-0.000532571
-2.30898e-05
-0.000541118
-0.000103709
-0.000550019
-0.000184647
-0.000559279
-0.00026603
-0.000568893
-0.00034799
-0.000578841
-0.000430656
-0.000589071
-0.000514164
-0.000599473
-0.000598637
-0.000609821
-0.00068415
-0.000619703
-0.000770641
-0.000628494
-0.000857767
-0.000635499
-0.000944761
-0.000640539
-0.00103055
-0.000645139
-0.00111463
-0.000653841
-0.00119942
-0.000673641
-0.0012935
-0.000708398
-0.00141204
-0.000748058
-0.00156604
-0.000761564
-0.00173661
-0.000707101
-0.00185064
-0.000560972
-0.00179297
-0.000346958
-0.00147286
-0.00013985
-0.000918877
-2.19864e-05
-0.000333822
-2.80192e-07
-1.35343e-05
0.000428448
-5.71053e-05
0.000858309
-0.000111076
0.00109173
-0.000164564
0.00126461
-0.0002129
0.00139894
-0.000253482
0.0014849
-0.00028501
0.001516
-0.000307657
0.00149534
-0.000322977
0.00143387
-0.000333389
0.00134656
-0.00034139
0.00124792
-0.000348851
0.00114852
-0.000356698
0.00105366
-0.000365046
0.000964246
-0.000373587
0.000878854
-0.00038196
0.000795616
-0.00038996
0.00071323
-0.000397569
0.000631139
-0.000404892
0.000549271
-0.000412074
0.000467727
-0.000419252
0.000386588
-0.000426534
0.000305857
-0.000434003
0.000225476
-0.000441728
0.000145349
-0.000449764
6.53368e-05
-0.000458158
-1.46932e-05
-0.000466924
-9.49411e-05
-0.000476073
-0.000175496
-0.000485606
-0.000256496
-0.000495515
-0.000338079
-0.000505783
-0.000420387
-0.00051638
-0.000503566
-0.000527246
-0.000587771
-0.000538247
-0.000673148
-0.000549117
-0.00075977
-0.000559367
-0.000847516
-0.000568261
-0.000935867
-0.000575047
-0.00102376
-0.000579788
-0.00110989
-0.000584936
-0.00119427
-0.000596619
-0.00128182
-0.000622402
-0.00138625
-0.000661889
-0.00152656
-0.00069392
-0.00170458
-0.000676378
-0.00186818
-0.000570936
-0.00189841
-0.000380455
-0.00166334
-0.000168299
-0.00113103
-2.92218e-05
-0.000472898
-2.95019e-05
-3.58277e-06
0.000432031
-3.49227e-05
0.000889651
-7.76656e-05
0.00113447
-0.000120632
0.00130758
-0.000159342
0.00143765
-0.00019179
0.00151734
-0.000217159
0.00154137
-0.000235793
0.00151398
-0.000249063
0.00144714
-0.0002589
0.0013564
-0.000267166
0.00125618
-0.000275141
0.0011565
-0.000283358
0.00106188
-0.000291786
0.000972675
-0.000300152
0.000887222
-0.000308219
0.000803684
-0.000315898
0.000720911
-0.000323246
0.000638488
-0.00033039
0.000556417
-0.000337471
0.000474809
-0.000344608
0.000393727
-0.000351896
0.000313147
-0.000359409
0.000232992
-0.000367213
0.000153156
-0.000375371
7.34979e-05
-0.000383936
-6.12604e-06
-0.000392923
-8.59518e-05
-0.00040234
-0.000166077
-0.000412179
-0.000246654
-0.000422428
-0.000327828
-0.000433068
-0.000409746
-0.000444073
-0.00049256
-0.000455403
-0.00057644
-0.000466978
-0.000661571
-0.000478634
-0.000748114
-0.000490036
-0.000836112
-0.000500592
-0.000925311
-0.000509452
-0.0010149
-0.000515909
-0.00110343
-0.000520624
-0.00118955
-0.000527599
-0.00127484
-0.000544781
-0.00136907
-0.000578307
-0.00149303
-0.000618255
-0.00166463
-0.000628405
-0.00185803
-0.00056174
-0.00196507
-0.000401135
-0.00182395
-0.000193431
-0.00133874
-3.75286e-05
-0.000628799
-6.70302e-05
6.26408e-06
0.000425768
-1.20457e-05
0.000907962
-4.32138e-05
0.00116564
-7.56724e-05
0.00134004
-0.000105085
0.00146707
-0.000129934
0.00154219
-0.000149775
0.00156121
-0.000164983
0.00152919
-0.000176611
0.00145877
-0.000186023
0.00136581
-0.000194455
0.00126462
-0.000202681
0.00116472
-0.000210958
0.00107016
-0.000219198
0.000980916
-0.00022721
0.000895236
-0.000234874
0.000811349
-0.00024219
0.000728229
-0.000249254
0.000645554
-0.000256196
0.000563361
-0.000263144
0.000481759
-0.000270202
0.000400788
-0.000277454
0.000320403
-0.00028497
0.00024051
-0.000292815
0.000161003
-0.000301063
8.17496e-05
-0.000309775
2.58879e-06
-0.000318978
-7.67452e-05
-0.000328676
-0.000156376
-0.000338854
-0.000236475
-0.000349491
-0.000317189
-0.000360566
-0.000398669
-0.00037205
-0.000481073
-0.000383912
-0.000564577
-0.000396097
-0.000649385
-0.000408497
-0.000735713
-0.00042089
-0.000823719
-0.000432846
-0.000913354
-0.000443642
-0.0010041
-0.000452353
-0.00109472
-0.000458545
-0.00118336
-0.000464073
-0.00126931
-0.000475219
-0.00135792
-0.000500956
-0.00146729
-0.000541136
-0.00162445
-0.000569491
-0.00182967
-0.000536746
-0.00199782
-0.000408886
-0.00195181
-0.00021351
-0.00153411
-4.64969e-05
-0.000795811
-0.000113527