/*--------------------------------*- C++ -*----------------------------------*\
  =========                 |
  \\      /  F ield         | OpenFOAM: The Open Source CFD Toolbox
   \\    /   O peration     | Website:  https://openfoam.org
    \\  /    A nd           | Version:  7
     \\/     M anipulation  |
\*---------------------------------------------------------------------------*/
FoamFile
{
    version     2.0;
    format      ascii;
    class       volVectorField;
    location    "300";
    object      U;
}
// * * * * * * * * * * * * * * * * * * * * * * * * * * * * * * * * * * * * * //

dimensions      [0 1 -1 0 0 0 0];

internalField   nonuniform List<vector> 
2500
(
(0.000207211 -0.0002045 0)
(0.00187054 -0.000573984 0)
(0.00448429 -0.000699931 0)
(0.00717513 -0.000601605 0)
(0.00924011 -0.000420055 0)
(0.0104588 -0.000265334 0)
(0.0109353 -0.000189273 0)
(0.0108826 -0.000187465 0)
(0.0104473 -0.000221597 0)
(0.00962304 -0.00024698 0)
(0.00825918 -0.000229705 0)
(0.00612195 -0.000150934 0)
(0.00295273 -1.59083e-06 0)
(-0.00149347 0.000223705 0)
(-0.00742256 0.000528176 0)
(-0.0149682 0.0009156 0)
(-0.0241536 0.00138626 0)
(-0.0348494 0.00192876 0)
(-0.046738 0.00250999 0)
(-0.0592928 0.00306747 0)
(-0.0717846 0.00351096 0)
(-0.0833179 0.00373522 0)
(-0.0929013 0.00364101 0)
(-0.0995481 0.00316207 0)
(-0.102388 0.00229139 0)
(-0.10074 0.00108612 0)
(-0.0943259 -0.000323736 0)
(-0.083213 -0.00177175 0)
(-0.0678611 -0.0030839 0)
(-0.0491193 -0.00409244 0)
(-0.0281992 -0.00465231 0)
(-0.00658745 -0.0046424 0)
(0.0141857 -0.00399254 0)
(0.0326462 -0.00284882 0)
(0.0474812 -0.00143814 0)
(0.0577169 6.06294e-05 0)
(0.0629558 0.00144003 0)
(0.0633967 0.00249081 0)
(0.0598303 0.00308453 0)
(0.0534196 0.00321166 0)
(0.0453985 0.00298331 0)
(0.0368764 0.00255227 0)
(0.028698 0.00205394 0)
(0.0213912 0.00158011 0)
(0.0151917 0.00117949 0)
(0.0101152 0.000867797 0)
(0.00605445 0.000634767 0)
(0.00291697 0.000438914 0)
(0.000802734 0.000195142 0)
(-8.07131e-05 -8.60603e-05 0)
(0.00056819 -0.00182795 0)
(0.00438445 -0.00432894 0)
(0.00959601 -0.00512654 0)
(0.0146156 -0.00444512 0)
(0.0181646 -0.00299796 0)
(0.0197581 -0.00145433 0)
(0.0194354 -0.00018703 0)
(0.0174069 0.000773731 0)
(0.0137549 0.00163841 0)
(0.00828641 0.00268661 0)
(0.000560874 0.00413569 0)
(-0.0099814 0.00609123 0)
(-0.0238716 0.0085572 0)
(-0.0414731 0.0114663 0)
(-0.0628648 0.0146798 0)
(-0.0877361 0.0179707 0)
(-0.115324 0.0210172 0)
(-0.144426 0.0234256 0)
(-0.173515 0.0247859 0)
(-0.200905 0.0247402 0)
(-0.224937 0.0230413 0)
(-0.244129 0.0195889 0)
(-0.257281 0.0144466 0)
(-0.263536 0.00784542 0)
(-0.262416 0.000173681 0)
(-0.253851 -0.00805422 0)
(-0.238038 -0.0162668 0)
(-0.215419 -0.0239107 0)
(-0.186754 -0.0304231 0)
(-0.153126 -0.0352685 0)
(-0.115937 -0.0379823 0)
(-0.0768842 -0.0382178 0)
(-0.0378737 -0.0358205 0)
(-0.000850017 -0.0309652 0)
(0.0323398 -0.024145 0)
(0.0600116 -0.0160854 0)
(0.0808415 -0.00760838 0)
(0.0940874 0.000404179 0)
(0.0996116 0.00710528 0)
(0.0979987 0.0119043 0)
(0.0906946 0.0145934 0)
(0.0794826 0.0153664 0)
(0.0661911 0.0146844 0)
(0.0524247 0.0131012 0)
(0.0393708 0.0111247 0)
(0.027733 0.00912431 0)
(0.0178074 0.00726482 0)
(0.00970587 0.0054504 0)
(0.00373819 0.00335679 0)
(0.000331414 0.000925841 0)
(0.00078816 -0.00450969 0)
(0.00569626 -0.00971479 0)
(0.0117234 -0.0109296 0)
(0.0169 -0.00900554 0)
(0.019736 -0.00541157 0)
(0.0196555 -0.00144745 0)
(0.0165757 0.0021843 0)
(0.0104915 0.00546754 0)
(0.00117247 0.00884479 0)
(-0.0119189 0.0128841 0)
(-0.0294991 0.0179704 0)
(-0.0521965 0.0241789 0)
(-0.0803132 0.0312953 0)
(-0.113611 0.0388523 0)
(-0.151206 0.0461651 0)
(-0.191608 0.0524113 0)
(-0.232919 0.0567656 0)
(-0.273098 0.0585425 0)
(-0.310217 0.0572977 0)
(-0.342654 0.0528681 0)
(-0.369176 0.0453552 0)
(-0.388945 0.0350758 0)
(-0.401455 0.0225024 0)
(-0.406452 0.00821403 0)
(-0.403866 -0.00714131 0)
(-0.393677 -0.0228836 0)
(-0.37592 -0.038306 0)
(-0.350858 -0.0526234 0)
(-0.31897 -0.0650018 0)
(-0.281014 -0.0746007 0)
(-0.238074 -0.0806432 0)
(-0.191577 -0.0825132 0)
(-0.143275 -0.0798707 0)
(-0.0951714 -0.072761 0)
(-0.0493806 -0.0617191 0)
(-0.00790706 -0.0477457 0)
(0.0275234 -0.0321282 0)
(0.055539 -0.0163228 0)
(0.0754329 -0.00162212 0)
(0.0869431 0.0107746 0)
(0.0903029 0.0199498 0)
(0.0867562 0.0255273 0)
(0.0780033 0.0277285 0)
(0.0659325 0.0272369 0)
(0.0523468 0.0249503 0)
(0.0387137 0.0217259 0)
(0.0260417 0.0181382 0)
(0.0149784 0.0142614 0)
(0.00626329 0.00960516 0)
(0.000706672 0.00359984 0)
(0.00091973 -0.00774472 0)
(0.006069 -0.015612 0)
(0.0115325 -0.0165408 0)
(0.0151227 -0.0124315 0)
(0.0153379 -0.0056909 0)
(0.0116197 0.00176304 0)
(0.00374056 0.00902881 0)
(-0.00865391 0.0162215 0)
(-0.0262348 0.0241083 0)
(-0.0498203 0.0334392 0)
(-0.0800443 0.044489 0)
(-0.116994 0.0569089 0)
(-0.159987 0.0698143 0)
(-0.20755 0.0819751 0)
(-0.257628 0.0920582 0)
(-0.307929 0.0988781 0)
(-0.356276 0.101591 0)
(-0.400865 0.0997834 0)
(-0.440373 0.0934473 0)
(-0.473934 0.082891 0)
(-0.50104 0.0686193 0)
(-0.521404 0.0512311 0)
(-0.534842 0.031354 0)
(-0.5412 0.00962066 0)
(-0.540324 -0.013313 0)
(-0.532028 -0.0367236 0)
(-0.516182 -0.0597719 0)
(-0.492756 -0.0814984 0)
(-0.461847 -0.10084 0)
(-0.423764 -0.116656 0)
(-0.379116 -0.127808 0)
(-0.328903 -0.133287 0)
(-0.274584 -0.132386 0)
(-0.218086 -0.124885 0)
(-0.161718 -0.111202 0)
(-0.107964 -0.0924367 0)
(-0.0591822 -0.0702807 0)
(-0.0172586 -0.0467425 0)
(0.0166023 -0.0237429 0)
(0.0417943 -0.00303769 0)
(0.058268 0.0141299 0)
(0.0662639 0.026829 0)
(0.0668861 0.0346741 0)
(0.0616853 0.0379956 0)
(0.0524481 0.0376908 0)
(0.0409661 0.0348936 0)
(0.0287944 0.0305632 0)
(0.0171742 0.0250458 0)
(0.00741646 0.0177607 0)
(0.000861808 0.00738007 0)
(0.00100054 -0.0110348 0)
(0.00559882 -0.0208346 0)
(0.00918573 -0.0203247 0)
(0.00958843 -0.0128419 0)
(0.00547107 -0.00184068 0)
(-0.00368643 0.0102576 0)
(-0.0183547 0.0225597 0)
(-0.0392946 0.0355167 0)
(-0.067441 0.0500685 0)
(-0.103438 0.0667324 0)
(-0.147167 0.0851221 0)
(-0.19753 0.103993 0)
(-0.252566 0.121604 0)
(-0.309811 0.136158 0)
(-0.366751 0.146172 0)
(-0.421212 0.150706 0)
(-0.471558 0.149404 0)
(-0.516721 0.142404 0)
(-0.556092 0.130171 0)
(-0.589362 0.113331 0)
(-0.616389 0.0925583 0)
(-0.637102 0.0685117 0)
(-0.651444 0.0418229 0)
(-0.659345 0.0131115 0)
(-0.660704 -0.0169786 0)
(-0.655388 -0.0477289 0)
(-0.643183 -0.0782909 0)
(-0.62381 -0.107662 0)
(-0.596969 -0.13467 0)
(-0.56242 -0.157962 0)
(-0.5201 -0.176063 0)
(-0.470286 -0.187499 0)
(-0.413772 -0.191003 0)
(-0.352014 -0.185783 0)
(-0.287204 -0.171801 0)
(-0.222166 -0.149965 0)
(-0.160069 -0.122152 0)
(-0.103926 -0.0909622 0)
(-0.056045 -0.0592571 0)
(-0.0176395 -0.029573 0)
(0.0111504 -0.00370238 0)
(0.0307146 0.0171434 0)
(0.0415961 0.0322891 0)
(0.0449942 0.0415722 0)
(0.0424257 0.0455216 0)
(0.0356139 0.0452 0)
(0.0263215 0.041715 0)
(0.0162093 0.035589 0)
(0.00709281 0.0261633 0)
(0.000794445 0.0113911 0)
(0.0009943 -0.013931 0)
(0.00413173 -0.0242721 0)
(0.00450013 -0.0208077 0)
(0.000249245 -0.00860464 0)
(-0.00969236 0.00783029 0)
(-0.0258904 0.0258231 0)
(-0.0490933 0.0447806 0)
(-0.0802812 0.0653779 0)
(-0.120157 0.0882615 0)
(-0.168516 0.113099 0)
(-0.223984 0.138417 0)
(-0.284236 0.162048 0)
(-0.346487 0.18177 0)
(-0.408041 0.195812 0)
(-0.466684 0.20312 0)
(-0.52085 0.203365 0)
(-0.569584 0.196789 0)
(-0.612401 0.183985 0)
(-0.649127 0.165706 0)
(-0.67978 0.142738 0)
(-0.704499 0.115833 0)
(-0.723492 0.085689 0)
(-0.73699 0.0529471 0)
(-0.745189 0.0182049 0)
(-0.748203 -0.0179577 0)
(-0.746033 -0.0549364 0)
(-0.738483 -0.0920341 0)
(-0.725116 -0.128383 0)
(-0.705312 -0.162886 0)
(-0.678296 -0.194164 0)
(-0.643264 -0.220552 0)
(-0.599555 -0.240176 0)
(-0.546903 -0.251141 0)
(-0.485735 -0.251827 0)
(-0.417439 -0.241286 0)
(-0.344527 -0.219646 0)
(-0.270557 -0.188394 0)
(-0.199713 -0.150367 0)
(-0.136059 -0.109333 0)
(-0.0826263 -0.0691851 0)
(-0.0407372 -0.0330685 0)
(-0.0100376 -0.00287306 0)
(0.0106377 0.0206542 0)
(0.0224819 0.037232 0)
(0.0269208 0.0470703 0)
(0.0256167 0.050944 0)
(0.020358 0.0498426 0)
(0.0130177 0.0442707 0)
(0.0057236 0.033457 0)
(0.000587985 0.01489 0)
(0.000834951 -0.0158526 0)
(0.00143189 -0.0246981 0)
(-0.00271743 -0.0165561 0)
(-0.0128907 0.00165144 0)
(-0.029871 0.0246695 0)
(-0.0543366 0.0499105 0)
(-0.0871865 0.0770696 0)
(-0.129168 0.1066 0)
(-0.180131 0.138233 0)
(-0.238615 0.170398 0)
(-0.302069 0.200598 0)
(-0.367442 0.226196 0)
(-0.431821 0.245089 0)
(-0.492851 0.256036 0)
(-0.548899 0.258666 0)
(-0.598992 0.253285 0)
(-0.642677 0.240613 0)
(-0.679878 0.221575 0)
(-0.710791 0.197148 0)
(-0.735816 0.16828 0)
(-0.755492 0.135833 0)
(-0.770417 0.100556 0)
(-0.781173 0.0630706 0)
(-0.788241 0.0238854 0)
(-0.791954 -0.0165687 0)
(-0.792462 -0.057897 0)
(-0.789676 -0.0996741 0)
(-0.783147 -0.141321 0)
(-0.772128 -0.182011 0)
(-0.755536 -0.22057 0)
(-0.732008 -0.255401 0)
(-0.700027 -0.284477 0)
(-0.658164 -0.305434 0)
(-0.605431 -0.315816 0)
(-0.541726 -0.31349 0)
(-0.468284 -0.297206 0)
(-0.387974 -0.267183 0)
(-0.305266 -0.225534 0)
(-0.225683 -0.176254 0)
(-0.154705 -0.124576 0)
(-0.0963657 -0.0757122 0)
(-0.0521678 -0.033491 0)
(-0.0211288 0.000299438 0)
(-0.00104915 0.0255048 0)
(0.0100732 0.0424597 0)
(0.0141424 0.0517826 0)
(0.0130926 0.0542656 0)
(0.00894681 0.0502604 0)
(0.00397274 0.0388741 0)
(0.000359298 0.0174729 0)
(0.000455861 -0.0160522 0)
(-0.00264777 -0.020834 0)
(-0.0124432 -0.00639677 0)
(-0.0294846 0.018952 0)
(-0.0543008 0.0496398 0)
(-0.0876429 0.0833294 0)
(-0.130224 0.11966 0)
(-0.182027 0.158264 0)
(-0.241697 0.197558 0)
(-0.306617 0.234813 0)
(-0.373534 0.266977 0)
(-0.439282 0.291522 0)
(-0.501269 0.30691 0)
(-0.557675 0.312635 0)
(-0.607414 0.309015 0)
(-0.650005 0.296903 0)
(-0.685444 0.277443 0)
(-0.714108 0.251883 0)
(-0.736661 0.221458 0)
(-0.753955 0.187291 0)
(-0.766925 0.150328 0)
(-0.776478 0.111304 0)
(-0.783416 0.0707466 0)
(-0.78838 0.0290064 0)
(-0.791835 -0.0136875 0)
(-0.794045 -0.057184 0)
(-0.795049 -0.101357 0)
(-0.794545 -0.145982 0)
(-0.79191 -0.190619 0)
(-0.786099 -0.234496 0)
(-0.775608 -0.276374 0)
(-0.758485 -0.314435 0)
(-0.732453 -0.34624 0)
(-0.695202 -0.368825 0)
(-0.644869 -0.379003 0)
(-0.580672 -0.373919 0)
(-0.503594 -0.351828 0)
(-0.416875 -0.312938 0)
(-0.326058 -0.260042 0)
(-0.238281 -0.198539 0)
(-0.160747 -0.135505 0)
(-0.098672 -0.0778047 0)
(-0.0536695 -0.030031 0)
(-0.0238568 0.00635674 0)
(-0.00577581 0.0320573 0)
(0.00345613 0.0480056 0)
(0.00635094 0.0550442 0)
(0.00522771 0.053449 0)
(0.00246247 0.04229 0)
(0.000207127 0.0191226 0)
(-0.000185559 -0.013696 0)
(-0.00805744 -0.0116106 0)
(-0.0243032 0.0105128 0)
(-0.048711 0.0438914 0)
(-0.0815948 0.0831029 0)
(-0.123582 0.125927 0)
(-0.174789 0.171414 0)
(-0.23411 0.217935 0)
(-0.299052 0.262614 0)
(-0.366261 0.30199 0)
(-0.432317 0.333016 0)
(-0.494328 0.353705 0)
(-0.550204 0.363286 0)
(-0.598673 0.362016 0)
(-0.639184 0.350863 0)
(-0.671787 0.331222 0)
(-0.697031 0.304676 0)
(-0.715834 0.272814 0)
(-0.729332 0.23709 0)
(-0.738729 0.198713 0)
(-0.745166 0.158597 0)
(-0.749636 0.117359 0)
(-0.752937 0.0753595 0)
(-0.755678 0.0327593 0)
(-0.758309 -0.0104128 0)
(-0.761135 -0.0542119 0)
(-0.764281 -0.098741 0)
(-0.76767 -0.14407 0)
(-0.770986 -0.190136 0)
(-0.773546 -0.236644 0)
(-0.774178 -0.282906 0)
(-0.771091 -0.327663 0)
(-0.761828 -0.368898 0)
(-0.743363 -0.403725 0)
(-0.71243 -0.428463 0)
(-0.666157 -0.438995 0)
(-0.602937 -0.431502 0)
(-0.523407 -0.403527 0)
(-0.431214 -0.355183 0)
(-0.333141 -0.290082 0)
(-0.238207 -0.215401 0)
(-0.155556 -0.140542 0)
(-0.0915747 -0.0743531 0)
(-0.0476657 -0.0221216 0)
(-0.0206269 0.0153522 0)
(-0.00561437 0.0397738 0)
(0.00111098 0.0525283 0)
(0.00262163 0.0542084 0)
(0.00158598 0.0440862 0)
(0.000182779 0.0201217 0)
(-0.00108961 -0.0080199 0)
(-0.0145156 0.00371159 0)
(-0.0375513 0.0345398 0)
(-0.0693032 0.0765114 0)
(-0.109818 0.12466 0)
(-0.159332 0.176513 0)
(-0.217072 0.230065 0)
(-0.280851 0.282328 0)
(-0.347374 0.329476 0)
(-0.413027 0.367849 0)
(-0.474596 0.394845 0)
(-0.529663 0.409256 0)
(-0.576711 0.411151 0)
(-0.615068 0.401563 0)
(-0.644816 0.382137 0)
(-0.666656 0.354828 0)
(-0.681747 0.321642 0)
(-0.691492 0.284414 0)
(-0.69733 0.244661 0)
(-0.700569 0.203502 0)
(-0.702288 0.161673 0)
(-0.703315 0.119574 0)
(-0.704241 0.0773617 0)
(-0.705472 0.0350203 0)
(-0.707315 -0.00756735 0)
(-0.710023 -0.0505747 0)
(-0.713736 -0.0942054 0)
(-0.718569 -0.138677 0)
(-0.724536 -0.184174 0)
(-0.731453 -0.230784 0)
(-0.738772 -0.278386 0)
(-0.74538 -0.326448 0)
(-0.749377 -0.37377 0)
(-0.747921 -0.418186 0)
(-0.73727 -0.456343 0)
(-0.713149 -0.48371 0)
(-0.671545 -0.495005 0)
(-0.609898 -0.485159 0)
(-0.528456 -0.450798 0)
(-0.431374 -0.391944 0)
(-0.326931 -0.313346 0)
(-0.226313 -0.224553 0)
(-0.140704 -0.13791 0)
(-0.0773553 -0.0644666 0)
(-0.0367792 -0.00982399 0)
(-0.0139144 0.0264109 0)
(-0.0027114 0.0468537 0)
(0.00125839 0.0530362 0)
(0.0014307 0.0448794 0)
(0.000287556 0.0208905 0)
(-0.00219728 0.0015155 0)
(-0.0215183 0.0254091 0)
(-0.051179 0.0655324 0)
(-0.0897037 0.116263 0)
(-0.136763 0.173156 0)
(-0.191975 0.233079 0)
(-0.253613 0.292744 0)
(-0.318648 0.348007 0)
(-0.383407 0.394566 0)
(-0.444381 0.429026 0)
(-0.498792 0.449522 0)
(-0.544812 0.455752 0)
(-0.581588 0.448689 0)
(-0.609172 0.430189 0)
(-0.628377 0.40259 0)
(-0.640577 0.368362 0)
(-0.647428 0.329784 0)
(-0.650595 0.288724 0)
(-0.651534 0.246537 0)
(-0.651375 0.204071 0)
(-0.650908 0.16176 0)
(-0.650632 0.119747 0)
(-0.650828 0.0779928 0)
(-0.651638 0.0363571 0)
(-0.653174 -0.00534335 0)
(-0.655583 -0.0473018 0)
(-0.658969 -0.0897054 0)
(-0.663518 -0.132768 0)
(-0.669451 -0.176734 0)
(-0.676968 -0.221878 0)
(-0.686134 -0.26845 0)
(-0.69668 -0.316555 0)
(-0.707721 -0.365914 0)
(-0.717411 -0.415489 0)
(-0.72265 -0.463032 0)
(-0.71902 -0.504689 0)
(-0.701175 -0.53491 0)
(-0.663844 -0.546949 0)
(-0.603421 -0.534173 0)
(-0.519823 -0.492128 0)
(-0.417967 -0.420932 0)
(-0.308032 -0.327098 0)
(-0.203702 -0.223462 0)
(-0.118115 -0.126026 0)
(-0.0586257 -0.0479375 0)
(-0.0237757 0.00579669 0)
(-0.00627514 0.0374206 0)
(0.00063396 0.0501415 0)
(0.00179317 0.0451931 0)
(0.000484806 0.0218102 0)
(-0.00337151 0.0151341 0)
(-0.0284162 0.0532673 0)
(-0.0640646 0.102851 0)
(-0.108303 0.162043 0)
(-0.160317 0.226852 0)
(-0.219007 0.293187 0)
(-0.281827 0.35651 0)
(-0.345251 0.411892 0)
(-0.405585 0.455018 0)
(-0.459685 0.483107 0)
(-0.505352 0.49522 0)
(-0.541461 0.492071 0)
(-0.567938 0.475603 0)
(-0.58563 0.448513 0)
(-0.596066 0.413762 0)
(-0.601129 0.374143 0)
(-0.602704 0.331949 0)
(-0.602399 0.288818 0)
(-0.601404 0.245733 0)
(-0.60047 0.203152 0)
(-0.599993 0.161179 0)
(-0.600118 0.119718 0)
(-0.600849 0.0785953 0)
(-0.602123 0.0376175 0)
(-0.603901 -0.0033933 0)
(-0.606229 -0.0445842 0)
(-0.609162 -0.0860674 0)
(-0.612846 -0.127967 0)
(-0.617532 -0.170456 0)
(-0.623556 -0.213784 0)
(-0.631316 -0.258301 0)
(-0.64116 -0.304436 0)
(-0.653178 -0.352581 0)
(-0.666833 -0.402797 0)
(-0.680474 -0.454319 0)
(-0.690846 -0.50487 0)
(-0.692874 -0.55002 0)
(-0.680063 -0.582949 0)
(-0.645773 -0.59507 0)
(-0.585348 -0.577845 0)
(-0.498594 -0.525701 0)
(-0.391689 -0.439368 0)
(-0.277323 -0.328227 0)
(-0.172009 -0.209706 0)
(-0.0903772 -0.104088 0)
(-0.0384432 -0.0257508 0)
(-0.0114302 0.0225258 0)
(-0.000208889 0.0450818 0)
(0.00227457 0.0451672 0)
(0.000718289 0.0230829 0)
(-0.00444878 0.0326721 0)
(-0.034558 0.086609 0)
(-0.0751538 0.145427 0)
(-0.12368 0.212337 0)
(-0.178777 0.283702 0)
(-0.238669 0.354364 0)
(-0.300234 0.418747 0)
(-0.359783 0.471557 0)
(-0.413871 0.508856 0)
(-0.459888 0.52873 0)
(-0.496332 0.531317 0)
(-0.522877 0.518434 0)
(-0.540271 0.493019 0)
(-0.550107 0.458526 0)
(-0.554434 0.418326 0)
(-0.555345 0.375239 0)
(-0.554616 0.331276 0)
(-0.553519 0.287615 0)
(-0.552798 0.24476 0)
(-0.552769 0.20277 0)
(-0.553469 0.161472 0)
(-0.554791 0.120627 0)
(-0.556581 0.080005 0)
(-0.558689 0.0394265 0)
(-0.561012 -0.0012401 0)
(-0.563553 -0.0420792 0)
(-0.566332 -0.0831275 0)
(-0.569412 -0.12442 0)
(-0.572954 -0.166015 0)
(-0.577224 -0.208036 0)
(-0.582625 -0.250723 0)
(-0.589698 -0.294491 0)
(-0.599056 -0.339953 0)
(-0.611169 -0.387824 0)
(-0.625928 -0.438592 0)
(-0.641972 -0.491848 0)
(-0.655952 -0.545302 0)
(-0.662101 -0.593787 0)
(-0.652651 -0.628828 0)
(-0.619505 -0.639504 0)
(-0.557085 -0.615047 0)
(-0.465586 -0.549003 0)
(-0.353277 -0.443787 0)
(-0.236173 -0.313431 0)
(-0.133767 -0.181592 0)
(-0.0609639 -0.0728613 0)
(-0.020146 -0.000606186 0)
(-0.00233315 0.0366229 0)
(0.00243872 0.0444136 0)
(0.000935717 0.0246666 0)
(-0.00528126 0.053557 0)
(-0.0393859 0.124365 0)
(-0.0835957 0.191879 0)
(-0.134781 0.265402 0)
(-0.191045 0.341632 0)
(-0.250069 0.414394 0)
(-0.308433 0.477392 0)
(-0.362554 0.525357 0)
(-0.409425 0.555034 0)
(-0.447086 0.565569 0)
(-0.474809 0.558293 0)
(-0.493086 0.536162 0)
(-0.503422 0.50303 0)
(-0.507944 0.462889 0)
(-0.508916 0.419203 0)
(-0.508297 0.374494 0)
(-0.507482 0.330247 0)
(-0.50725 0.287074 0)
(-0.50788 0.245011 0)
(-0.50933 0.20381 0)
(-0.511415 0.163149 0)
(-0.513923 0.122745 0)
(-0.516675 0.0823949 0)
(-0.519532 0.0419664 0)
(-0.522409 0.00138331 0)
(-0.525309 -0.0393918 0)
(-0.528251 -0.0803509 0)
(-0.531229 -0.121483 0)
(-0.5343 -0.162771 0)
(-0.537581 -0.204219 0)
(-0.541295 -0.245897 0)
(-0.545841 -0.288018 0)
(-0.55184 -0.331042 0)
(-0.560124 -0.375759 0)
(-0.571542 -0.423239 0)
(-0.586445 -0.474465 0)
(-0.603811 -0.529443 0)
(-0.620174 -0.585804 0)
(-0.628939 -0.63732 0)
(-0.620875 -0.67328 0)
(-0.58639 -0.679799 0)
(-0.519349 -0.64369 0)
(-0.421244 -0.558393 0)
(-0.303659 -0.429987 0)
(-0.186825 -0.279773 0)
(-0.0927364 -0.139212 0)
(-0.0340127 -0.0355618 0)
(-0.00656921 0.0228297 0)
(0.00197405 0.0420641 0)
(0.00111001 0.0263102 0)
(-0.00574919 0.0768758 0)
(-0.0424935 0.165197 0)
(-0.0888269 0.240656 0)
(-0.141007 0.319469 0)
(-0.196663 0.398752 0)
(-0.253121 0.471497 0)
(-0.306909 0.531024 0)
(-0.354751 0.572423 0)
(-0.394199 0.593358 0)
(-0.424003 0.594175 0)
(-0.444218 0.577454 0)
(-0.456076 0.547232 0)
(-0.461637 0.508077 0)
(-0.463268 0.464203 0)
(-0.463115 0.418821 0)
(-0.462744 0.373895 0)
(-0.46303 0.330265 0)
(-0.464267 0.288003 0)
(-0.466373 0.246797 0)
(-0.469108 0.206239 0)
(-0.472215 0.16598 0)
(-0.4755 0.125784 0)
(-0.478841 0.0855107 0)
(-0.482162 0.0450859 0)
(-0.485427 0.00447468 0)
(-0.488668 -0.0363381 0)
(-0.491912 -0.077334 0)
(-0.49513 -0.1185 0)
(-0.498314 -0.159799 0)
(-0.501462 -0.201181 0)
(-0.504616 -0.242601 0)
(-0.507917 -0.284069 0)
(-0.511709 -0.325755 0)
(-0.516641 -0.368142 0)
(-0.523726 -0.412194 0)
(-0.534176 -0.459376 0)
(-0.548816 -0.511232 0)
(-0.566932 -0.568201 0)
(-0.5848 -0.627625 0)
(-0.594711 -0.681635 0)
(-0.585711 -0.716402 0)
(-0.546801 -0.714366 0)
(-0.472074 -0.660124 0)
(-0.365778 -0.548795 0)
(-0.24441 -0.39343 0)
(-0.132965 -0.225982 0)
(-0.0539882 -0.0860704 0)
(-0.0133982 0.00130716 0)
(0.000731801 0.0369456 0)
(0.00124537 0.0276564 0)
(-0.00577885 0.101492 0)
(-0.0436548 0.207622 0)
(-0.090595 0.290185 0)
(-0.142206 0.372895 0)
(-0.195746 0.453495 0)
(-0.248376 0.524395 0)
(-0.296773 0.578849 0)
(-0.338096 0.612571 0)
(-0.370517 0.624313 0)
(-0.393497 0.615703 0)
(-0.407793 0.590541 0)
(-0.415201 0.553777 0)
(-0.418064 0.510401 0)
(-0.418683 0.464501 0)
(-0.41884 0.418756 0)
(-0.419581 0.374432 0)
(-0.421282 0.331749 0)
(-0.42387 0.290367 0)
(-0.427072 0.249789 0)
(-0.430598 0.209586 0)
(-0.434234 0.169474 0)
(-0.437863 0.1293 0)
(-0.441445 0.0889954 0)
(-0.444969 0.0485296 0)
(-0.44844 0.00788819 0)
(-0.45192 -0.0329423 0)
(-0.455447 -0.0739537 0)
(-0.458996 -0.115152 0)
(-0.46254 -0.156519 0)
(-0.466032 -0.198011 0)
(-0.46941 -0.239551 0)
(-0.472629 -0.281049 0)
(-0.475735 -0.322447 0)
(-0.478988 -0.363857 0)
(-0.483042 -0.405774 0)
(-0.48907 -0.449358 0)
(-0.498645 -0.496536 0)
(-0.513051 -0.549498 0)
(-0.53177 -0.609056 0)
(-0.550496 -0.671802 0)
(-0.559934 -0.72723 0)
(-0.547118 -0.757162 0)
(-0.500069 -0.739759 0)
(-0.414544 -0.658543 0)
(-0.299688 -0.513811 0)
(-0.17858 -0.330606 0)
(-0.0802786 -0.154804 0)
(-0.0231585 -0.0307148 0)
(-0.00131952 0.0277378 0)
(0.00136089 0.0283306 0)
(-0.00534915 0.126162 0)
(-0.0428203 0.250134 0)
(-0.0889296 0.338981 0)
(-0.138601 0.424269 0)
(-0.18884 0.50467 0)
(-0.236812 0.572298 0)
(-0.279485 0.620611 0)
(-0.314524 0.646143 0)
(-0.340717 0.648837 0)
(-0.358169 0.631607 0)
(-0.368189 0.599353 0)
(-0.3729 0.557692 0)
(-0.374657 0.511705 0)
(-0.375458 0.465063 0)
(-0.376597 0.419743 0)
(-0.378621 0.376316 0)
(-0.381525 0.334507 0)
(-0.385038 0.293738 0)
(-0.388844 0.253473 0)
(-0.392707 0.213357 0)
(-0.396503 0.17321 0)
(-0.400202 0.132962 0)
(-0.403828 0.0925949 0)
(-0.407411 0.0521035 0)
(-0.410978 0.0114747 0)
(-0.414602 -0.0293148 0)
(-0.418333 -0.0702724 0)
(-0.422156 -0.111427 0)
(-0.426049 -0.152789 0)
(-0.429969 -0.194347 0)
(-0.433837 -0.236055 0)
(-0.437538 -0.277816 0)
(-0.44095 -0.319491 0)
(-0.44402 -0.360951 0)
(-0.446926 -0.402237 0)
(-0.45032 -0.443873 0)
(-0.45555 -0.487273 0)
(-0.464577 -0.534956 0)
(-0.479102 -0.589853 0)
(-0.498548 -0.652928 0)
(-0.517463 -0.719128 0)
(-0.524298 -0.77371 0)
(-0.503948 -0.792618 0)
(-0.44455 -0.74978 0)
(-0.345927 -0.630682 0)
(-0.224837 -0.446933 0)
(-0.111835 -0.24205 0)
(-0.0363127 -0.0761864 0)
(-0.00425287 0.0129556 0)
(0.00144807 0.0279265 0)
(-0.00448648 0.149654 0)
(-0.0400884 0.291303 0)
(-0.0840817 0.385733 0)
(-0.130686 0.472459 0)
(-0.176769 0.551461 0)
(-0.219631 0.614839 0)
(-0.256619 0.656467 0)
(-0.285918 0.673825 0)
(-0.306883 0.668082 0)
(-0.320135 0.643362 0)
(-0.327338 0.605474 0)
(-0.330706 0.560415 0)
(-0.332382 0.513066 0)
(-0.333939 0.466483 0)
(-0.336185 0.421907 0)
(-0.339271 0.379318 0)
(-0.342977 0.338116 0)
(-0.346975 0.297641 0)
(-0.351003 0.257425 0)
(-0.35492 0.217225 0)
(-0.358692 0.176957 0)
(-0.362353 0.136613 0)
(-0.365963 0.0962022 0)
(-0.369569 0.0557222 0)
(-0.373196 0.0151512 0)
(-0.376915 -0.0255472 0)
(-0.380783 -0.0663944 0)
(-0.384794 -0.107435 0)
(-0.388933 -0.148704 0)
(-0.393179 -0.190224 0)
(-0.397475 -0.231991 0)
(-0.401719 -0.273957 0)
(-0.405755 -0.316007 0)
(-0.409395 -0.357949 0)
(-0.412497 -0.399576 0)
(-0.415167 -0.440861 0)
(-0.418085 -0.482398 0)
(-0.422834 -0.525995 0)
(-0.431812 -0.57497 0)
(-0.447038 -0.633066 0)
(-0.467398 -0.700834 0)
(-0.485401 -0.769924 0)
(-0.486494 -0.818996 0)
(-0.453866 -0.816711 0)
(-0.378053 -0.734601 0)
(-0.26648 -0.566553 0)
(-0.146123 -0.34489 0)
(-0.0531636 -0.137283 0)
(-0.00822962 -0.00901348 0)
(0.0014592 0.0259928 0)
(-0.00325494 0.170832 0)
(-0.0356653 0.329841 0)
(-0.07645 0.429341 0)
(-0.119113 0.516621 0)
(-0.16048 0.593378 0)
(-0.198077 0.651973 0)
(-0.229672 0.686843 0)
(-0.253939 0.696472 0)
(-0.270703 0.683214 0)
(-0.280945 0.652269 0)
(-0.286479 0.610122 0)
(-0.28941 0.562881 0)
(-0.291536 0.515011 0)
(-0.293982 0.468873 0)
(-0.297154 0.425043 0)
(-0.300954 0.383062 0)
(-0.305078 0.342168 0)
(-0.309241 0.301732 0)
(-0.313271 0.2614 0)
(-0.31712 0.221041 0)
(-0.320819 0.180642 0)
(-0.324436 0.140227 0)
(-0.328042 0.0998085 0)
(-0.331682 0.0593766 0)
(-0.335373 0.0188962 0)
(-0.339174 -0.0216814 0)
(-0.343148 -0.0623878 0)
(-0.347292 -0.103278 0)
(-0.351593 -0.144401 0)
(-0.356046 -0.1858 0)
(-0.360622 -0.227509 0)
(-0.365258 -0.269531 0)
(-0.369838 -0.311818 0)
(-0.374171 -0.35423 0)
(-0.378009 -0.396515 0)
(-0.381133 -0.438376 0)
(-0.383607 -0.479738 0)
(-0.386205 -0.521368 0)
(-0.390854 -0.565713 0)
(-0.400457 -0.617198 0)
(-0.417105 -0.680285 0)
(-0.438288 -0.753811 0)
(-0.453227 -0.823306 0)
(-0.443911 -0.857841 0)
(-0.393534 -0.818694 0)
(-0.299017 -0.680708 0)
(-0.179646 -0.457719 0)
(-0.0731673 -0.21435 0)
(-0.0134897 -0.0399268 0)
(0.00137277 0.0220542 0)
(-0.00174426 0.188729 0)
(-0.0298255 0.364643 0)
(-0.0665117 0.468935 0)
(-0.104596 0.556169 0)
(-0.14093 0.630197 0)
(-0.17332 0.683879 0)
(-0.199952 0.712308 0)
(-0.219931 0.714958 0)
(-0.233431 0.695277 0)
(-0.241623 0.659356 0)
(-0.246296 0.614127 0)
(-0.249302 0.56559 0)
(-0.252051 0.517681 0)
(-0.255268 0.472086 0)
(-0.259078 0.428837 0)
(-0.263261 0.387199 0)
(-0.267526 0.34637 0)
(-0.271668 0.305815 0)
(-0.275608 0.265297 0)
(-0.279365 0.224774 0)
(-0.283004 0.184273 0)
(-0.286602 0.143827 0)
(-0.290229 0.103438 0)
(-0.293923 0.0630838 0)
(-0.297688 0.0227156 0)
(-0.301571 -0.0177252 0)
(-0.305641 -0.0582772 0)
(-0.309899 -0.0990027 0)
(-0.314325 -0.139957 0)
(-0.318921 -0.181197 0)
(-0.323676 -0.222776 0)
(-0.328558 -0.264734 0)
(-0.333499 -0.307085 0)
(-0.338367 -0.349773 0)
(-0.34294 -0.392622 0)
(-0.346911 -0.435303 0)
(-0.350001 -0.477417 0)
(-0.352278 -0.518893 0)
(-0.354733 -0.560878 0)
(-0.359802 -0.606878 0)
(-0.370913 -0.662776 0)
(-0.389653 -0.733131 0)
(-0.410683 -0.812364 0)
(-0.418553 -0.875542 0)
(-0.39248 -0.879517 0)
(-0.31959 -0.781958 0)
(-0.20889 -0.57356 0)
(-0.0947529 -0.305382 0)
(-0.0202484 -0.0814268 0)
(0.00122932 0.0156321 0)
(-5.89906e-05 0.20258 0)
(-0.0228769 0.394795 0)
(-0.0547656 0.503852 0)
(-0.087834 0.59074 0)
(-0.119005 0.66188 0)
(-0.146371 0.710862 0)
(-0.168521 0.733463 0)
(-0.184906 0.730082 0)
(-0.195918 0.705116 0)
(-0.202767 0.665356 0)
(-0.207079 0.617975 0)
(-0.210383 0.56873 0)
(-0.213711 0.520996 0)
(-0.21748 0.475872 0)
(-0.221645 0.432992 0)
(-0.225961 0.391473 0)
(-0.230197 0.350552 0)
(-0.234232 0.309803 0)
(-0.23806 0.269094 0)
(-0.241736 0.228437 0)
(-0.245338 0.187878 0)
(-0.248938 0.147438 0)
(-0.252598 0.10711 0)
(-0.256352 0.0668551 0)
(-0.260194 0.0266153 0)
(-0.264155 -0.0136765 0)
(-0.26832 -0.0540641 0)
(-0.272693 -0.0946169 0)
(-0.277239 -0.135395 0)
(-0.281965 -0.176461 0)
(-0.286865 -0.217878 0)
(-0.291922 -0.259709 0)
(-0.297102 -0.302004 0)
(-0.302328 -0.344779 0)
(-0.30745 -0.387961 0)
(-0.312205 -0.431317 0)
(-0.316231 -0.474409 0)
(-0.319207 -0.516737 0)
(-0.321298 -0.558359 0)
(-0.323897 -0.6012 0)
(-0.330164 -0.650458 0)
(-0.343862 -0.713636 0)
(-0.36484 -0.793439 0)
(-0.382861 -0.874845 0)
(-0.377116 -0.917033 0)
(-0.327271 -0.865221 0)
(-0.231137 -0.685477 0)
(-0.115801 -0.406446 0)
(-0.0285017 -0.134638 0)
(0.00109061 0.00622296 0)
(0.00169144 0.21184 0)
(-0.0151363 0.419579 0)
(-0.0416935 0.53361 0)
(-0.0694697 0.620133 0)
(-0.0954695 0.688515 0)
(-0.118061 0.733278 0)
(-0.136189 0.750873 0)
(-0.149566 0.742508 0)
(-0.158683 0.713362 0)
(-0.164665 0.670738 0)
(-0.168882 0.621902 0)
(-0.172519 0.572295 0)
(-0.176281 0.52478 0)
(-0.180369 0.479984 0)
(-0.184663 0.437276 0)
(-0.188945 0.39572 0)
(-0.193058 0.354625 0)
(-0.196955 0.313671 0)
(-0.20067 0.272798 0)
(-0.204279 0.23205 0)
(-0.207854 0.191471 0)
(-0.211459 0.15107 0)
(-0.215148 0.110825 0)
(-0.218954 0.0706881 0)
(-0.222866 0.0305926 0)
(-0.226898 -0.00953588 0)
(-0.231153 -0.0497451 0)
(-0.235647 -0.0901138 0)
(-0.240325 -0.130706 0)
(-0.245194 -0.17159 0)
(-0.250247 -0.212833 0)
(-0.255473 -0.254506 0)
(-0.260853 -0.296682 0)
(-0.266345 -0.339422 0)
(-0.271858 -0.382734 0)
(-0.277212 -0.426509 0)
(-0.282099 -0.470416 0)
(-0.286093 -0.513872 0)
(-0.288884 -0.556316 0)
(-0.290883 -0.598223 0)
(-0.29417 -0.643006 0)
(-0.302787 -0.698353 0)
(-0.320089 -0.772623 0)
(-0.341906 -0.861931 0)
(-0.350951 -0.933913 0)
(-0.322847 -0.928101 0)
(-0.244888 -0.787657 0)
(-0.134292 -0.512568 0)
(-0.0378653 -0.19934 0)
(0.000937915 -0.00663107 0)
(0.00340178 0.216212 0)
(-0.00691179 0.438419 0)
(-0.0277421 0.557877 0)
(-0.0500621 0.64427 0)
(-0.0709581 0.710253 0)
(-0.0890299 0.751475 0)
(-0.103535 0.765016 0)
(-0.114362 0.752747 0)
(-0.122003 0.720447 0)
(-0.127403 0.675772 0)
(-0.13163 0.625974 0)
(-0.135534 0.576185 0)
(-0.139557 0.528836 0)
(-0.143765 0.484214 0)
(-0.148021 0.441527 0)
(-0.152165 0.399842 0)
(-0.156107 0.358549 0)
(-0.159852 0.317411 0)
(-0.163457 0.276414 0)
(-0.166997 0.235615 0)
(-0.17054 0.19505 0)
(-0.174138 0.154714 0)
(-0.17784 0.114571 0)
(-0.181682 0.0745689 0)
(-0.185652 0.0346367 0)
(-0.189739 -0.00530738 0)
(-0.194076 -0.0453179 0)
(-0.198698 -0.0854828 0)
(-0.203523 -0.125874 0)
(-0.208555 -0.166562 0)
(-0.213787 -0.207618 0)
(-0.219207 -0.249118 0)
(-0.224802 -0.291143 0)
(-0.230545 -0.333778 0)
(-0.236383 -0.377089 0)
(-0.242202 -0.421063 0)
(-0.24778 -0.465513 0)
(-0.252743 -0.509956 0)
(-0.256624 -0.553637 0)
(-0.259212 -0.596088 0)
(-0.261427 -0.638817 0)
(-0.266399 -0.68787 0)
(-0.278879 -0.753916 0)
(-0.299874 -0.842732 0)
(-0.3179 -0.934495 0)
(-0.308317 -0.970639 0)
(-0.249889 -0.876005 0)
(-0.148765 -0.618681 0)
(-0.0476256 -0.273814 0)
(0.000637497 -0.0233606 0)
(0.00493089 0.215518 0)
(0.00149276 0.450985 0)
(-0.0133073 0.576399 0)
(-0.0300873 0.663144 0)
(-0.0459774 0.727263 0)
(-0.0597586 0.765756 0)
(-0.0709512 0.776264 0)
(-0.0795546 0.761158 0)
(-0.0859852 0.72664 0)
(-0.0909498 0.680578 0)
(-0.0951924 0.630165 0)
(-0.0992563 0.580265 0)
(-0.10338 0.532993 0)
(-0.107552 0.488407 0)
(-0.111658 0.445638 0)
(-0.115597 0.403783 0)
(-0.119339 0.362302 0)
(-0.122919 0.321015 0)
(-0.126404 0.279937 0)
(-0.129864 0.239124 0)
(-0.133357 0.198601 0)
(-0.136927 0.15835 0)
(-0.14062 0.118327 0)
(-0.144478 0.0784789 0)
(-0.14849 0.0387343 0)
(-0.152618 -0.000994511 0)
(-0.157024 -0.0407818 0)
(-0.161775 -0.0807138 0)
(-0.166759 -0.12088 0)
(-0.171976 -0.161351 0)
(-0.177414 -0.202202 0)
(-0.183064 -0.243509 0)
(-0.188911 -0.285359 0)
(-0.194936 -0.32785 0)
(-0.201103 -0.37108 0)
(-0.20734 -0.415106 0)
(-0.213494 -0.459858 0)
(-0.219285 -0.505012 0)
(-0.22427 -0.549865 0)
(-0.227982 -0.59353 0)
(-0.230502 -0.636066 0)
(-0.233672 -0.681205 0)
(-0.241957 -0.739099 0)
(-0.25962 -0.821934 0)
(-0.281576 -0.923688 0)
(-0.286297 -0.994716 0)
(-0.246894 -0.948272 0)
(-0.15849 -0.720338 0)
(-0.056969 -0.355353 0)
(-1.39419e-05 -0.0443765 0)
(0.00612703 0.210004 0)
(0.00971479 0.456835 0)
(0.00129079 0.589098 0)
(-0.00993983 0.676767 0)
(-0.020927 0.7397 0)
(-0.0305948 0.776351 0)
(-0.0386895 0.784875 0)
(-0.0452718 0.767968 0)
(-0.0506333 0.732081 0)
(-0.0552103 0.685186 0)
(-0.0594216 0.634405 0)
(-0.0635348 0.584407 0)
(-0.0676282 0.53711 0)
(-0.0716531 0.492452 0)
(-0.0755304 0.449537 0)
(-0.0792192 0.407503 0)
(-0.0827346 0.365862 0)
(-0.0861308 0.32447 0)
(-0.0894754 0.283351 0)
(-0.092831 0.242556 0)
(-0.0962484 0.2021 0)