/*--------------------------------*- C++ -*----------------------------------*\
  =========                 |
  \\      /  F ield         | OpenFOAM: The Open Source CFD Toolbox
   \\    /   O peration     | Website:  https://openfoam.org
    \\  /    A nd           | Version:  7
     \\/     M anipulation  |
\*---------------------------------------------------------------------------*/
FoamFile
{
    version     2.0;
    format      ascii;
    class       volScalarField;
    location    "100";
    object      p;
}
// * * * * * * * * * * * * * * * * * * * * * * * * * * * * * * * * * * * * * //

dimensions      [0 2 -2 0 0 0 0];

internalField   nonuniform List<scalar> 
2500
(
0.000128209
0.000188439
-8.34186e-05
-0.000585407
-0.00123607
-0.00198993
-0.00281726
-0.00369855
-0.00462067
-0.00557281
-0.00654324
-0.00751721
-0.00847582
-0.00939564
-0.010249
-0.0110048
-0.0116297
-0.0120903
-0.0123548
-0.0123963
-0.0121952
-0.0117428
-0.0110437
-0.0101184
-0.00900467
-0.00775741
-0.00644759
-0.00515918
-0.00398427
-0.00301661
-0.00234433
-0.00204233
-0.00216518
-0.00274149
-0.00377062
-0.00522196
-0.00703713
-0.0091352
-0.0114199
-0.0137875
-0.0161342
-0.0183637
-0.0203918
-0.0221493
-0.0235825
-0.0246528
-0.0253375
-0.0256324
-0.0255722
-0.0253372
0.000365118
0.000296109
2.72755e-05
-0.000422996
-0.00100326
-0.00167863
-0.00242554
-0.00322799
-0.00407453
-0.00495531
-0.00585956
-0.00677394
-0.00768154
-0.00856145
-0.00938893
-0.010136
-0.0107723
-0.011267
-0.0115903
-0.0117161
-0.0116247
-0.0113058
-0.0107611
-0.0100071
-0.00907604
-0.00801692
-0.00689385
-0.00578399
-0.00477272
-0.00394764
-0.00339152
-0.00317492
-0.00334924
-0.00394123
-0.00494969
-0.00634493
-0.00807108
-0.0100509
-0.0121932
-0.0144007
-0.0165777
-0.0186365
-0.0205021
-0.0221152
-0.0234317
-0.0244225
-0.0250719
-0.0253739
-0.0253374
-0.0251013
0.000711036
0.000573878
0.00028547
-0.000139112
-0.000668295
-0.00127847
-0.00195384
-0.00268392
-0.00346102
-0.00427796
-0.00512628
-0.00599498
-0.00686962
-0.00773198
-0.00855998
-0.00932803
-0.0100078
-0.0105693
-0.010983
-0.0112215
-0.0112628
-0.0110929
-0.0107089
-0.010122
-0.00935887
-0.00846287
-0.00749289
-0.00652166
-0.005631
-0.00490588
-0.00442741
-0.00426526
-0.00447057
-0.00507018
-0.00606317
-0.00742026
-0.0090862
-0.010985
-0.013027
-0.015118
-0.0171667
-0.0190913
-0.0208242
-0.022315
-0.023529
-0.0244462
-0.025057
-0.0253514
-0.0253089
-0.0250435
0.00126434
0.00103433
0.000688451
0.000252886
-0.000257201
-0.000830149
-0.00145899
-0.00214032
-0.00287198
-0.00365115
-0.00447303
-0.00532973
-0.00620961
-0.00709682
-0.00797104
-0.00880763
-0.00957809
-0.0102511
-0.0107943
-0.0111764
-0.0113701
-0.0113556
-0.0111241
-0.0106804
-0.0100464
-0.00926101
-0.00838036
-0.00747617
-0.00663073
-0.005931
-0.00546111
-0.0052944
-0.00548571
-0.00606505
-0.00703364
-0.00836301
-0.00999739
-0.0118593
-0.0138573
-0.0158953
-0.0178816
-0.0197361
-0.0213947
-0.0228121
-0.0239609
-0.0248278
-0.025408
-0.0256888
-0.0256343
-0.0253496
0.00197817
0.00162533
0.00119087
0.000719439
0.000206314
-0.000351042
-0.000955679
-0.00161235
-0.00232556
-0.00309794
-0.0039291
-0.00481485
-0.00574643
-0.00670998
-0.00768604
-0.00864943
-0.00956955
-0.0104113
-0.0111371
-0.0117089
-0.012092
-0.0122589
-0.0121928
-0.011892
-0.0113726
-0.01067
-0.00983836
-0.00895006
-0.00809009
-0.00735007
-0.00682043
-0.00658177
-0.00669637
-0.00720103
-0.00810227
-0.00937483
-0.0109637
-0.0127899
-0.0147588
-0.0167704
-0.0187289
-0.0205521
-0.022176
-0.0235575
-0.0246732
-0.025515
-0.0260827
-0.0263651
-0.026322
-0.0260532
0.00278099
0.0022827
0.00173873
0.00121498
0.000682309
0.000121465
-0.000481857
-0.00114144
-0.00186921
-0.0026738
-0.00355977
-0.00452683
-0.00556902
-0.00667391
-0.00782182
-0.00898542
-0.01013
-0.0112144
-0.0121931
-0.0130191
-0.013648
-0.014042
-0.0141752
-0.0140375
-0.0136384
-0.0130087
-0.0122006
-0.011287
-0.0103565
-0.00950712
-0.00883809
-0.00844068
-0.00838879
-0.00873068
-0.00948292
-0.0106278
-0.0121147
-0.0138653
-0.0157825
-0.0177615
-0.0197007
-0.0215122
-0.0231284
-0.0245047
-0.0256188
-0.0264652
-0.027047
-0.0273568
-0.0273588
-0.0271433
0.0035934
0.00293548
0.00226905
0.00168165
0.00111537
0.000531673
-9.62576e-05
-0.000791985
-0.00157533
-0.00246134
-0.00345974
-0.00457418
-0.00580118
-0.00712896
-0.00853635
-0.00999219
-0.0114555
-0.0128768
-0.0142001
-0.015367
-0.0163208
-0.0170115
-0.0174012
-0.0174694
-0.0172166
-0.0166671
-0.0158688
-0.0148946
-0.0138362
-0.0127986
-0.0118921
-0.0112222
-0.0108793
-0.0109293
-0.0114055
-0.0123045
-0.0135858
-0.0151767
-0.0169803
-0.0188877
-0.0207903
-0.0225917
-0.0242163
-0.0256136
-0.0267576
-0.0276421
-0.028271
-0.0286405
-0.028721
-0.0285915
0.00432896
0.00350295
0.00270699
0.00204816
0.00143516
0.000807725
0.000125292
-0.000646127
-0.00153465
-0.00256198
-0.00374314
-0.00508559
-0.00658785
-0.0082379
-0.0100117
-0.0118726
-0.0137713
-0.0156474
-0.0174324
-0.0190538
-0.0204398
-0.0215252
-0.0222573
-0.0226016
-0.0225464
-0.0221056
-0.0213197
-0.0202586
-0.0190154
-0.0177023
-0.0164418
-0.0153571
-0.014561
-0.0141441
-0.0141653
-0.0146449
-0.0155617
-0.0168559
-0.0184365
-0.0201932
-0.0220102
-0.0237799
-0.0254145
-0.0268514
-0.0280552
-0.0290134
-0.0297261
-0.03019
-0.0303824
-0.0303654
0.00489036
0.00389441
0.00296648
0.00223039
0.00155717
0.000862517
9.10291e-05
-0.000802315
-0.0018543
-0.00309354
-0.00454044
-0.0062061
-0.00809052
-0.0101805
-0.0124479
-0.0148486
-0.0173232
-0.0197984
-0.0221904
-0.0244098
-0.0263667
-0.0279773
-0.0291701
-0.0298923
-0.0301151
-0.0298377
-0.029088
-0.0279288
-0.0264516
-0.0247737
-0.0230304
-0.0213654
-0.0199187
-0.0188143
-0.018147
-0.0179729
-0.0183025
-0.0191004
-0.0202905
-0.0217667
-0.0234079
-0.0250936
-0.0267184
-0.0282013
-0.0294894
-0.0305557
-0.0313906
-0.0319859
-0.0323207
-0.032439
0.0051742
0.00401071
0.00295188
0.00213342
0.00138484
0.000596026
-0.000304195
-0.00137246
-0.00265463
-0.00418658
-0.0059942
-0.00809213
-0.0104813
-0.0131465
-0.0160542
-0.0191514
-0.0223664
-0.0256107
-0.028783
-0.0317735
-0.0344712
-0.0367692
-0.038573
-0.0398063
-0.040418
-0.0403876
-0.0397249
-0.0384792
-0.0367363
-0.0346149
-0.0322612
-0.0298398
-0.0275224
-0.0254732
-0.0238343
-0.0227115
-0.022163
-0.0221938
-0.0227566
-0.0237597
-0.0250817
-0.0265893
-0.0281548
-0.0296705
-0.0310565
-0.0322612
-0.0332554
-0.0340184
-0.0345266
-0.0347995
0.00507053
0.00374764
0.00256149
0.00165502
0.000813412
-0.000100455
-0.00117425
-0.00247679
-0.00406353
-0.005978
-0.00825184
-0.0109031
-0.0139334
-0.0173245
-0.0210361
-0.0250049
-0.0291451
-0.0333505
-0.037499
-0.0414578
-0.0450902
-0.0482627
-0.0508527
-0.0527562
-0.0538946
-0.0542227
-0.0537271
-0.0524369
-0.050426
-0.0478091
-0.0447386
-0.0413975
-0.0379889
-0.0347222
-0.031796
-0.02938
-0.0275987
-0.0265179
-0.026139
-0.0264012
-0.0271939
-0.0283742
-0.0297894
-0.0312963
-0.0327762
-0.03414
-0.0353267
-0.0362933
-0.0370042
-0.0374514
0.00447039
0.00299941
0.00169147
0.000690274
-0.000264909
-0.00133863
-0.00263548
-0.004237
-0.0062088
-0.00860258
-0.0114561
-0.0147907
-0.0186082
-0.0228865
-0.0275773
-0.0326052
-0.0378676
-0.0432381
-0.0485707
-0.0537057
-0.0584772
-0.062721
-0.0662835
-0.0690286
-0.0708473
-0.0716653
-0.0714436
-0.0701838
-0.0679421
-0.0648218
-0.0609737
-0.0565918
-0.0519058
-0.0471685
-0.0426394
-0.0385639
-0.0351503
-0.032549
-0.0308363
-0.0300072
-0.0299806
-0.030615
-0.0317334
-0.0331499
-0.0346935
-0.0362221
-0.037627
-0.0388293
-0.039774
-0.0404164
0.0032671
0.00166458
0.000241672
-0.000862544
-0.00195466
-0.00322633
-0.00479923
-0.00676806
-0.0092092
-0.012183
-0.0157337
-0.0198858
-0.0246405
-0.029971
-0.0358192
-0.0420948
-0.0486762
-0.0554131
-0.0621319
-0.0686426
-0.0747469
-0.0802473
-0.0849568
-0.0887071
-0.0913565
-0.0927997
-0.0929743
-0.0918494
-0.0894574
-0.0858826
-0.0812639
-0.0757945
-0.0697188
-0.0633239
-0.0569255
-0.0508479
-0.0453969
-0.0408302
-0.0373294
-0.0349783
-0.0337557
-0.0335429
-0.0341478
-0.0353389
-0.0368795
-0.038556
-0.0401934
-0.0416605
-0.042869
-0.0437316
0.00136626
-0.000349077
-0.00187888
-0.00309563
-0.00435017
-0.00585998
-0.00776365
-0.0101694
-0.0131647
-0.0168193
-0.0211834
-0.0262849
-0.0321232
-0.0386646
-0.0458391
-0.0535388
-0.0616187
-0.0699012
-0.0781812
-0.0862351
-0.0938299
-0.100734
-0.106728
-0.111613
-0.115217
-0.117404
-0.118094
-0.117225
-0.1148
-0.110878
-0.105576
-0.0990707
-0.0916042
-0.0834788
-0.0750509
-0.0667145
-0.0588747
-0.0519126
-0.0461442
-0.0417816
-0.038905
-0.0374546
-0.0372464
-0.0380088
-0.0394309
-0.0412082
-0.0430758
-0.0448293
-0.0463341
-0.0474452
-0.00131265
-0.00311743
-0.00474506
-0.00608482
-0.00752833
-0.0093169
-0.0116055
-0.0145158
-0.018147
-0.0225777
-0.0278646
-0.0340372
-0.0410918
-0.0489855
-0.0576329
-0.0669041
-0.0766269
-0.0865914
-0.096558
-0.106267
-0.11545
-0.123842
-0.131196
-0.137286
-0.141917
-0.144931
-0.146228
-0.14573
-0.143408
-0.139293
-0.13347
-0.126086
-0.117359
-0.107581
-0.0971216
-0.0864199
-0.0759659
-0.0662644
-0.0577856
-0.0509078
-0.0458634
-0.0427034
-0.0412934
-0.0413441
-0.0424707
-0.0442606
-0.0463335
-0.0483871
-0.050219
-0.0516116
-0.00482566
-0.00669537
-0.00841038
-0.00988346
-0.011542
-0.0136482
-0.0163724
-0.0198497
-0.0241903
-0.029482
-0.0357865
-0.0431337
-0.051514
-0.060872
-0.0711022
-0.0820483
-0.0935059
-0.105229
-0.116939
-0.128341
-0.139131
-0.149016
-0.157726
-0.165016
-0.17068
-0.174545
-0.176498
-0.176459
-0.174371
-0.170237
-0.164108
-0.15609
-0.146357
-0.135163
-0.122855
-0.109881
-0.0967809
-0.0841606
-0.0726448
-0.0628039
-0.0550726
-0.0496771
-0.0465953
-0.0455654
-0.0461467
-0.0478101
-0.0500337
-0.0523863
-0.0545763
-0.0562863
-0.0092044
-0.0111105
-0.0129011
-0.0145168
-0.016414
-0.0188726
-0.0220769
-0.0261742
-0.0312856
-0.0375065
-0.0449025
-0.0535011
-0.0632835
-0.0741774
-0.0860525
-0.0987208
-0.111941
-0.125426
-0.13886
-0.151909
-0.164241
-0.17554
-0.185518
-0.193926
-0.200555
-0.205231
-0.207833
-0.208295
-0.20654
-0.202552
-0.196348
-0.187989
-0.177592
-0.16535
-0.151554
-0.136613
-0.121066
-0.105577
-0.0908957
-0.0777841
-0.0669154
-0.0587574
-0.0534802
-0.0509217
-0.0506294
-0.051966
-0.0542474
-0.0568811
-0.0594544
-0.0615201
-0.0144471
-0.016361
-0.0182133
-0.0199782
-0.0221337
-0.0249728
-0.0286919
-0.0334495
-0.0393759
-0.0465727
-0.0551067
-0.065
-0.0762207
-0.0886744
-0.102201
-0.116576
-0.131517
-0.146695
-0.161754
-0.176328
-0.190058
-0.202614
-0.213704
-0.22308
-0.230542
-0.235928
-0.239119
-0.240071
-0.238704
-0.234988
-0.228915
-0.220504
-0.209816
-0.196967
-0.182167
-0.165743
-0.148178
-0.130127
-0.112407
-0.0959385
-0.081637
-0.0702623
-0.0622633
-0.0576736
-0.056105
-0.0568478
-0.0590483
-0.0619196
-0.064895
-0.0673544
-0.020522
-0.022412
-0.0243099
-0.0262272
-0.0286541
-0.031893
-0.0361495
-0.0415914
-0.0483564
-0.0565498
-0.0662367
-0.0774301
-0.0900804
-0.104067
-0.119195
-0.135199
-0.151754
-0.168488
-0.185008
-0.200919
-0.215846
-0.229451
-0.241445
-0.251593
-0.259716
-0.265669
-0.26935
-0.270733
-0.269756
-0.266382
-0.260592
-0.252373
-0.241733
-0.228718
-0.213442
-0.196123
-0.177138
-0.157063
-0.136702
-0.117063
-0.0992659
-0.0843781
-0.0731985
-0.066065
-0.0627622
-0.0625785
-0.0645076
-0.067544
-0.0709264
-0.0738154
-0.0273619
-0.029197
-0.0311219
-0.0331893
-0.0358932
-0.03954
-0.0443421
-0.0504738
-0.0580775
-0.0672597
-0.0780803
-0.0905395
-0.104566
-0.120008
-0.136634
-0.154135
-0.172141
-0.190243
-0.208014
-0.225036
-0.240923
-0.255341
-0.268013
-0.278723
-0.287315
-0.293675
-0.297723
-0.299449
-0.29882
-0.295804
-0.290379
-0.282515
-0.272187
-0.259378
-0.244115
-0.226498
-0.206766
-0.185358
-0.162982
-0.140635
-0.11956
-0.101095
-0.0864226
-0.0762857
-0.0707709
-0.0692747
-0.070689
-0.0737819
-0.0775612
-0.0809091
-0.0348712
-0.036619
-0.0385494
-0.0407588
-0.0437359
-0.0477864
-0.0531262
-0.059933
-0.0683512
-0.0784851
-0.0903862
-0.104038
-0.119345
-0.136123
-0.154098
-0.17292
-0.192179
-0.211429
-0.230215
-0.248105
-0.264712
-0.27971
-0.292838
-0.303909
-0.312792
-0.319403
-0.32369
-0.32566
-0.32531
-0.32262
-0.317577
-0.310149
-0.300292
-0.287952
-0.273084
-0.255686
-0.235851
-0.213851
-0.190224
-0.165854
-0.141993
-0.120162
-0.101903
-0.0884273
-0.0802541
-0.0770303
-0.0776394
-0.0806431
-0.0847882
-0.0886155
-0.0429252
-0.0445551
-0.0464666
-0.0488032
-0.0520397
-0.0564764
-0.0623291
-0.069776
-0.0789601
-0.0899804
-0.102877
-0.117616
-0.134072
-0.152028
-0.171172
-0.191114
-0.211405
-0.23157
-0.251135
-0.26966
-0.286762
-0.302128
-0.315523
-0.326782
-0.335804
-0.342534
-0.346946
-0.349063
-0.348912
-0.346489
-0.341795
-0.334808
-0.325485
-0.313753
-0.299528
-0.282726
-0.263319
-0.241404
-0.217312
-0.191731
-0.165798
-0.141083
-0.119404
-0.102443
-0.0912554
-0.0858973
-0.0853776
-0.0881096
-0.0925669
-0.0968825
-0.0513799
-0.0528616
-0.0547276
-0.0571695
-0.0606409
-0.0654325
-0.0717569
-0.0797892
-0.0896677
-0.101484
-0.115264
-0.130954
-0.148401
-0.167356
-0.187469
-0.208315
-0.229415
-0.250269
-0.270392
-0.289343
-0.306748
-0.322312
-0.335821
-0.347137
-0.356183
-0.362932
-0.367379
-0.369563
-0.369534
-0.367306
-0.362898
-0.356307
-0.3475
-0.33641
-0.322936
-0.306951
-0.288337
-0.267042
-0.243189
-0.217218
-0.190047
-0.163149
-0.138479
-0.118118
-0.103709
-0.0958632
-0.0938809
-0.0961287
-0.100821
-0.10562
-0.0600749
-0.0613813
-0.0631731
-0.0656916
-0.069363
-0.0744653
-0.0812043
-0.0897488
-0.10023
-0.11273
-0.127259
-0.143744
-0.162006
-0.181764
-0.20264
-0.224177
-0.245872
-0.267211
-0.2877
-0.306904
-0.324461
-0.340093
-0.353609
-0.364892
-0.373889
-0.380589
-0.385009
-0.387199
-0.387228
-0.385125
-0.38093
-0.374658
-0.366299
-0.355804
-0.343079
-0.327988
-0.31036
-0.290038
-0.266966
-0.241331
-0.213764
-0.185513
-0.158497
-0.135065
-0.117419
-0.106831
-0.103071
-0.104604
-0.10943
-0.114695
-0.0688444
-0.0699511
-0.0716389
-0.0741987
-0.0780256
-0.0833816
-0.0904635
-0.0994313
-0.110407
-0.12346
-0.138588
-0.155697
-0.174587
-0.194952
-0.216386
-0.238412
-0.26051
-0.282154
-0.302853
-0.322176
-0.339776
-0.355391
-0.368848
-0.380048
-0.388954
-0.395572
-0.39993
-0.402085
-0.402124
-0.400086
-0.39603
-0.389992
-0.381987
-0.371992
-0.35994
-0.345706
-0.329108
-0.309932
-0.287989
-0.263247
-0.236033
-0.207277
-0.178701
-0.152741
-0.13205
-0.118603
-0.112803
-0.113384
-0.118229
-0.123927
-0.0775222
-0.0784097
-0.0799635
-0.082524
-0.0864525
-0.0919942
-0.0993346
-0.108623
-0.11997
-0.133435
-0.149
-0.166556
-0.185885
-0.206661
-0.22846
-0.250791
-0.273122
-0.294925
-0.315712
-0.335059
-0.35263
-0.36818
-0.381548
-0.392647
-0.401452
-0.407977
-0.412259
-0.414359
-0.414376
-0.412357
-0.408374
-0.402488
-0.394736
-0.385126
-0.373627
-0.360142
-0.344511
-0.326501
-0.305849
-0.282358
-0.256077
-0.227584
-0.198276
-0.170482
-0.147137
-0.130876
-0.122854
-0.122264
-0.126996
-0.133082
-0.0859514
-0.0866047
-0.0879956
-0.090512
-0.0944807
-0.10013
-0.107633
-0.117128
-0.128714
-0.142438
-0.158273
-0.176096
-0.195677
-0.216678
-0.238666
-0.261137
-0.28356
-0.305405
-0.326189
-0.345498
-0.363003
-0.378469
-0.391745
-0.40275
-0.411464
-0.417905
-0.422115
-0.424154
-0.424131
-0.422096
-0.418136
-0.412327
-0.404732
-0.395392
-0.384309
-0.371431
-0.356633
-0.3397
-0.320347
-0.298271
-0.273307
-0.245692
-0.216426
-0.187563
-0.162111
-0.143245
-0.132921
-0.130973
-0.13546
-0.141881
-0.0939893
-0.0943997
-0.0956011
-0.0980256
-0.101967
-0.107636
-0.115197
-0.124775
-0.136458
-0.150285
-0.166219
-0.184132
-0.203786
-0.224838
-0.246851
-0.269322
-0.291718
-0.313515
-0.334235
-0.353468
-0.370894
-0.386281
-0.399481
-0.410416
-0.419064
-0.425444
-0.429597
-0.431583
-0.431512
-0.429439
-0.425461
-0.41967
-0.412149
-0.402969
-0.392169
-0.379743
-0.365612
-0.349602
-0.331443
-0.310789
-0.287328
-0.261012
-0.232435
-0.203251
-0.176337
-0.155218
-0.142627
-0.139181
-0.143293
-0.14999
-0.101515
-0.10168
-0.102668
-0.104951
-0.108792
-0.114388
-0.121893
-0.131422
-0.143055
-0.156824
-0.172688
-0.190517
-0.210072
-0.231014
-0.252907
-0.275254
-0.297527
-0.319208
-0.339822
-0.358965
-0.376317
-0.391645
-0.4048
-0.415699
-0.424316
-0.430666
-0.434786
-0.436734
-0.436615
-0.434494
-0.430469
-0.424647
-0.41713
-0.408015
-0.397378
-0.385253
-0.371615
-0.356342
-0.339204
-0.319859
-0.29792
-0.273128
-0.245709
-0.216862
-0.189151
-0.166238
-0.151523
-0.146497
-0.150118
-0.157031
-0.108431
-0.108356
-0.109113
-0.111204
-0.114868
-0.12029
-0.127618
-0.13696
-0.148391
-0.161939
-0.177565
-0.19514
-0.214435
-0.235117
-0.256761
-0.278878
-0.300949
-0.322462
-0.342945
-0.361996
-0.379289
-0.394589
-0.407736
-0.418641
-0.427269
-0.433624
-0.437741
-0.439672
-0.439513
-0.43734
-0.43325
-0.427362
-0.419793
-0.410664
-0.400082
-0.388123
-0.374809
-0.360077
-0.343753
-0.325529
-0.305
-0.281779
-0.255794
-0.227793
-0.199906
-0.175709
-0.159106
-0.152478
-0.155508
-0.162583
-0.114666
-0.114365
-0.114878
-0.116732
-0.120139
-0.125281
-0.132304
-0.141315
-0.152388
-0.165552
-0.180773
-0.197934
-0.216816
-0.237102
-0.25838
-0.280176
-0.301981
-0.323287
-0.343626
-0.362591
-0.37985
-0.395155
-0.408337
-0.419292
-0.427972
-0.43437
-0.438513
-0.440446
-0.440262
-0.438041
-0.433877
-0.427897
-0.420234
-0.411027
-0.40041
-0.388496
-0.375353
-0.360974
-0.345243
-0.32791
-0.30859
-0.28684
-0.262377
-0.235552
-0.208
-0.183028
-0.164829
-0.156631
-0.158993
-0.166183
-0.120179
-0.119671
-0.119937
-0.121508
-0.124579
-0.12933
-0.135914
-0.144443
-0.154997
-0.167613
-0.182268
-0.198859
-0.217186
-0.236948
-0.257756
-0.279149
-0.300629
-0.321697
-0.341883
-0.360773
-0.378025
-0.393377
-0.40664
-0.417695
-0.426477
-0.432967
-0.437177
-0.439146
-0.43895
-0.436683
-0.432434
-0.426339
-0.418542
-0.409203
-0.398477
-0.386506
-0.373397
-0.359193
-0.343839
-0.327146
-0.308778
-0.288288
-0.26527
-0.23976
-0.212904
-0.187599
-0.168119
-0.158423
-0.160055
-0.167326
-0.124955
-0.124268
-0.124288
-0.125539
-0.128194
-0.132439
-0.138442
-0.14633
-0.156199
-0.1681
-0.182027
-0.197897
-0.215533
-0.234655
-0.254896
-0.275813
-0.29692
-0.317723
-0.337751
-0.356579
-0.373853
-0.389289
-0.402679
-0.413882
-0.422815
-0.429439
-0.433756
-0.435796
-0.43562
-0.433329
-0.429007
-0.422794
-0.414845
-0.405328
-0.39442
-0.382292
-0.369089
-0.354897
-0.339711
-0.323402
-0.305695
-0.286176
-0.264388
-0.240147
-0.214165
-0.188859
-0.168385
-0.157278
-0.158133
-0.165462
-0.129006
-0.128173
-0.127957
-0.128853
-0.131013
-0.134635
-0.139909
-0.146992
-0.156005
-0.167023
-0.180066
-0.195073
-0.211892
-0.23027
-0.24986
-0.270239
-0.290933
-0.311453
-0.331321
-0.350103
-0.367426
-0.382984
-0.396545
-0.407945
-0.417075
-0.423881
-0.428348
-0.430494
-0.430367
-0.428073
-0.423688
-0.417356
-0.40924
-0.399519
-0.388385
-0.376027
-0.362613
-0.348268
-0.333038
-0.316855
-0.299499
-0.280605
-0.259722
-0.236535
-0.211412
-0.186277
-0.16502
-0.152576
-0.152604
-0.159984
-0.132366
-0.13143
-0.130996
-0.131504
-0.133091
-0.135966
-0.140357
-0.146463
-0.154445
-0.164414
-0.17642
-0.19043
-0.20632
-0.223862
-0.242732
-0.262523
-0.282774
-0.302995
-0.322706
-0.341459
-0.358858
-0.374575
-0.38835
-0.399993
-0.409372
-0.416408
-0.42107
-0.423363
-0.423325
-0.421052
-0.416624
-0.410181
-0.401891
-0.391942
-0.380535
-0.367876
-0.354154
-0.339516
-0.324039
-0.307705
-0.290367
-0.271711
-0.251317
-0.228816
-0.204336
-0.179355
-0.157403
-0.14364
-0.142775
-0.150206
-0.135094
-0.134102
-0.133473
-0.133566
-0.134497
-0.136496
-0.139842
-0.144793
-0.151566
-0.16032
-0.171142
-0.184033
-0.198896
-0.215526
-0.23362
-0.252787
-0.272573
-0.292491
-0.312052
-0.330792
-0.348295
-0.364207
-0.378239
-0.390173
-0.39985
-0.407168
-0.412076
-0.414564
-0.414659
-0.412441
-0.407999
-0.401463
-0.393003
-0.382811
-0.371093
-0.358066
-0.343931
-0.328855
-0.312938
-0.296187
-0.278502
-0.259645
-0.239245
-0.216927
-0.192677
-0.167614
-0.144878
-0.129718
-0.127847
-0.135331
-0.137264
-0.136274
-0.135477
-0.135125
-0.13531
-0.136296
-0.138425
-0.142037
-0.147421
-0.154799
-0.164303
-0.175968
-0.189723
-0.205385
-0.222668
-0.241191
-0.260505
-0.280124
-0.299547
-0.318296
-0.335933
-0.352076
-0.366408
-0.37868
-0.388705
-0.396359
-0.401567
-0.404303
-0.40458
-0.402463
-0.398047
-0.391444
-0.382827
-0.372386
-0.360329
-0.346871
-0.33222
-0.316551
-0.299979
-0.282532
-0.264129
-0.244579
-0.223588
-0.200819
-0.17619
-0.150572
-0.126739
-0.109944
-0.10688
-0.114397
-0.138973
-0.138049
-0.137115
-0.136276
-0.135613
-0.135433
-0.136165
-0.13825
-0.14207
-0.147921
-0.155987
-0.16634
-0.17893
-0.193594
-0.210052
-0.227932
-0.246786
-0.266123
-0.285432
-0.304219
-0.322021
-0.338432
-0.353105
-0.365762
-0.376189
-0.384233
-0.389798
-0.392839
-0.393357
-0.391394
-0.387048
-0.380418
-0.371666
-0.360979
-0.348557
-0.33461
-0.319339
-0.302915
-0.285455
-0.266993
-0.247463
-0.226689
-0.204426
-0.180425
-0.154608
-0.127701
-0.10219
-0.0833005
-0.0787264
-0.0861963
-0.140337
-0.139552
-0.138507
-0.137123
-0.135483
-0.133965
-0.133108
-0.133478
-0.135569
-0.13976
-0.146294
-0.155277
-0.166678
-0.18034
-0.195989
-0.213253
-0.231679
-0.250767
-0.269998
-0.288857
-0.306862
-0.32358
-0.338637
-0.351725
-0.362604
-0.371093
-0.377076
-0.380485
-0.381304
-0.379559
-0.375335
-0.368724
-0.359869
-0.348945
-0.336139
-0.321644
-0.305642
-0.288289
-0.269685
-0.249852
-0.228721
-0.206122
-0.181818
-0.155635
-0.127598
-0.0983864
-0.0702879
-0.0485313
-0.0419326
-0.0491548
-0.141505
-0.140942
-0.139797
-0.137773
-0.134989
-0.131931
-0.129282
-0.127754
-0.12797
-0.130398
-0.135341
-0.142933
-0.153155
-0.165849
-0.180738
-0.197438
-0.21549
-0.234383
-0.253583
-0.272559
-0.290809
-0.307876
-0.323359
-0.336925
-0.348306
-0.357296
-0.363755
-0.367595
-0.36878
-0.367321
-0.363276
-0.356735
-0.347813
-0.336666
-0.323458
-0.308353
-0.291504
-0.27303
-0.252999
-0.231398
-0.208127
-0.182998
-0.155773
-0.126288
-0.0947255
-0.0618736
-0.0298919
-0.00406313
0.00540427
-0.00113277
-0.142684
-0.142427
-0.141161
-0.138337
-0.134184
-0.129348
-0.124693
-0.1211
-0.119324
-0.11993
-0.123268
-0.129495
-0.138592
-0.150392
-0.164601
-0.180821
-0.198578
-0.217347
-0.236578
-0.255725
-0.274267
-0.291725
-0.307678
-0.321765
-0.333694
-0.343237
-0.350227
-0.354558
-0.356173
-0.355062
-0.351259
-0.344836
-0.335884
-0.324527
-0.310895
-0.295114
-0.277289
-0.257487
-0.235715
-0.211902
-0.185883
-0.157413
-0.126223
-0.0921529
-0.0554606
-0.0172285
0.020355
0.0520003
0.065718
0.0607734
-0.144195
-0.144308
-0.142832
-0.138945
-0.133108
-0.126211
-0.11933
-0.113529
-0.109695
-0.108472
-0.110251
-0.115194
-0.12327
-0.13429
-0.147935
-0.163786
-0.181348
-0.20008
-0.219415
-0.238794
-0.257678
-0.275571
-0.292031
-0.306676
-0.319193
-0.32933
-0.336899
-0.341771
-0.343869
-0.34316
-0.339652
-0.33339
-0.324436
-0.312873
-0.298789
-0.282257
-0.263317
-0.241962
-0.218112
-0.191598
-0.162153
-0.129427
-0.0930663
-0.0528758
-0.00915429
0.0367256
0.0821123
0.12183
0.141919
0.140272
-0.146598
-0.147064
-0.145141
-0.139762
-0.13181
-0.12251
-0.113187
-0.105075
-0.099176
-0.0961901
-0.0965223
-0.100322
-0.107529
-0.117923
-0.131151
-0.146765
-0.164249
-0.18304
-0.20256
-0.222233
-0.241507
-0.259872
-0.276868
-0.292097
-0.305225
-0.315981
-0.324157
-0.329602
-0.332214
-0.33194
-0.328761
-0.322685
-0.313742
-0.301965
-0.287389
-0.270022
-0.24982
-0.226677
-0.200396
-0.170668
-0.137067
-0.099078
-0.0561872
-0.00809069
0.0449234
0.101357
0.157587
0.208205
0.237821
0.24225
-0.150959
-0.151522
-0.148616
-0.141046
-0.130387
-0.118277
-0.106299
-0.0958319
-0.0879325
-0.0833225
-0.0823894
-0.085243
-0.0917796
-0.101732
-0.11471
-0.130234
-0.14776
-0.166709
-0.186488
-0.206509
-0.226209
-0.245067
-0.26261
-0.278427
-0.292166
-0.30354
-0.312322
-0.318338
-0.321468
-0.32163
-0.318779
-0.31289
-0.303946
-0.291931
-0.276812
-0.258519
-0.236911
-0.211753
-0.182695
-0.149243
-0.11075
-0.0664515
-0.0155774
0.0424044
0.107343
0.177698
0.249276
0.315093
0.359704
0.375149
-0.159399
-0.159183
-0.15414
-0.143252
-0.12907
-0.113667
-0.0988264
-0.0860085
-0.0762523
-0.0702242
-0.068264
-0.0704119
-0.0765012
-0.0862117
-0.0991099
-0.114682
-0.132361
-0.15155
-0.171642
-0.192042
-0.21218
-0.231524
-0.249596
-0.26597
-0.280285
-0.292238
-0.301585
-0.308135
-0.311744
-0.312309
-0.309752
-0.304014
-0.295038
-0.282747
-0.267032
-0.24773
-0.224587
-0.197222
-0.165094
-0.127472
-0.083422
-0.0318363
0.0284419
0.0983363
0.178024
0.266141
0.358462
0.446644
0.515508
0.5524
-0.176151
-0.17283
-0.163243
-0.147201
-0.12837
-0.109079
-0.0911553
-0.0760197
-0.0645878
-0.0573901
-0.0546658
-0.0563565
-0.0622171
-0.0718679
-0.084831
-0.10056
-0.118467
-0.137939
-0.158362
-0.179133
-0.199679
-0.219465
-0.238004
-0.254867
-0.269682
-0.282135
-0.291968
-0.298976
-0.302995
-0.303897
-0.301577
-0.29594
-0.286882
-0.274272
-0.257921
-0.237561
-0.212812
-0.183128
-0.147753
-0.10568
-0.0556185
0.00398626
0.0748412
0.158508
0.255816
0.365896
0.484748
0.604471
0.706484
0.778596
-0.209315
-0.19749
-0.178357
-0.154072
-0.128998
-0.105074
-0.0838155
-0.066389
-0.0534642
-0.0453575
-0.0421232
-0.0435777
-0.0493883
-0.0591136
-0.0722331
-0.088173
-0.106326
-0.126072
-0.146791
-0.167878
-0.18876
-0.2089
-0.227811
-0.245061
-0.260271
-0.27312
-0.283341
-0.290714
-0.295059
-0.296227
-0.294086
-0.288505
-0.279336
-0.266392
-0.249408
-0.228009
-0.201687
-0.169727
-0.131151
-0.0846545
-0.0285498
0.0392571
0.121213
0.219891
0.33743
0.474437
0.628044
0.789753
0.929194
1.03376
-0.278311
-0.241402
-0.200832
-0.16311
-0.129848
-0.100687
-0.0761395
-0.0567677
-0.0427786
-0.0341491
-0.0307155
-0.032171
-0.0380988
-0.0480036
-0.0613334
-0.0774963
-0.0958769
-0.115851
-0.136801
-0.158124
-0.179252
-0.19965
-0.218834
-0.236371
-0.25188
-0.265036
-0.275563
-0.283231
-0.287845
-0.289238
-0.287253
-0.281728
-0.272476
-0.259254
-0.241728
-0.21944
-0.191763
-0.157834
-0.116476
-0.0661117
-0.00467769
0.0704743
0.162644
0.275778
0.414279
0.582404
0.78237
1.00835
1.21574
1.36794
-0.455894
-0.310855
-0.216306
-0.162733
-0.122889
-0.0896257
-0.0634013
-0.0437908
-0.0300257
-0.0217683
-0.0187865
-0.0207138
-0.0270842
-0.0373851
-0.0510654
-0.0675393
-0.0861993
-0.106431
-0.127627
-0.149196
-0.170573
-0.191235
-0.210698
-0.228531
-0.244353
-0.257834
-0.268693
-0.27669
-0.28162
-0.283299
-0.281552
-0.276193
-0.267002
-0.253699
-0.235906
-0.213109
-0.184604
-0.149426
-0.106269
-0.0533789
0.0115681
0.0916296
0.190815
0.314404
0.469455
0.665697
0.916544
1.23819
1.62788
2.07613
-0.91078
-0.397894
-0.192023
-0.143751
-0.106727
-0.0705078
-0.0443147
-0.0265847
-0.0145354
-0.00756743
-0.00563995
-0.00844677
-0.0155317
-0.0264125
-0.0405756
-0.0574656
-0.0764988
-0.0970798
-0.118616
-0.140527
-0.162258
-0.18329
-0.203144
-0.221386
-0.237636
-0.251558
-0.262866
-0.271313
-0.276684
-0.278788
-0.277436
-0.27243
-0.263538
-0.250465
-0.232815
-0.210051
-0.18144
-0.145988
-0.102348
-0.0487157
0.0173168
0.0989581
0.20053
0.328017
0.490152
0.700873
0.985232
1.39732
2.06638
3.21861
)
;

boundaryField
{
    movingWall
    {
        type            zeroGradient;
    }
    fixedWalls
    {
        type            zeroGradient;
    }
    frontAndBack
    {
        type            empty;
    }
}


// ************************************************************************* //
