/*--------------------------------*- C++ -*----------------------------------*\
  =========                 |
  \\      /  F ield         | OpenFOAM: The Open Source CFD Toolbox
   \\    /   O peration     | Website:  https://openfoam.org
    \\  /    A nd           | Version:  7
     \\/     M anipulation  |
\*---------------------------------------------------------------------------*/
FoamFile
{
    version     2.0;
    format      ascii;
    class       volVectorField;
    location    "100";
    object      U;
}
// * * * * * * * * * * * * * * * * * * * * * * * * * * * * * * * * * * * * * //

dimensions      [0 1 -1 0 0 0 0];

internalField   nonuniform List<vector> 
2500
(
(3.9503e-05 -0.000170608 0)
(0.000324257 -0.000165465 0)
(0.000699016 -0.000121693 0)
(0.000842318 -7.0095e-05 0)
(0.000725106 -2.29252e-05 0)
(0.000360116 1.81973e-05 0)
(-0.000231293 5.30113e-05 0)
(-0.00102805 8.30837e-05 0)
(-0.00201417 0.000110623 0)
(-0.0031798 0.000137545 0)
(-0.00451951 0.000165098 0)
(-0.00602934 0.000193802 0)
(-0.00770367 0.000223489 0)
(-0.00953236 0.000253408 0)
(-0.0114984 0.000282319 0)
(-0.0135759 0.000308587 0)
(-0.0157293 0.000330253 0)
(-0.0179125 0.000345136 0)
(-0.020069 0.000350933 0)
(-0.0221328 0.000345378 0)
(-0.0240305 0.000326416 0)
(-0.0256835 0.000292435 0)
(-0.0270116 0.000242496 0)
(-0.0279378 0.000176587 0)
(-0.0283928 9.58262e-05 0)
(-0.0283202 2.56877e-06 0)
(-0.0276822 -9.95372e-05 0)
(-0.0264639 -0.000205556 0)
(-0.024677 -0.000309616 0)
(-0.0223624 -0.000405283 0)
(-0.0195894 -0.000486089 0)
(-0.0164546 -0.000546132 0)
(-0.0130767 -0.000580712 0)
(-0.00959037 -0.000586882 0)
(-0.00613773 -0.000563847 0)
(-0.00285951 -0.000513095 0)
(0.000114668 -0.000438234 0)
(0.00267476 -0.000344811 0)
(0.00473683 -0.000239687 0)
(0.00624719 -0.000129962 0)
(0.00718407 -2.22326e-05 0)
(0.00755664 7.78698e-05 0)
(0.00740202 0.000165976 0)
(0.0067816 0.000238794 0)
(0.00577859 0.000293251 0)
(0.00449868 0.000325094 0)
(0.00307584 0.000327195 0)
(0.00168954 0.000287224 0)
(0.000593932 0.000183353 0)
(2.80304e-05 2.79414e-05 0)
(0.000119092 -0.000580636 0)
(0.000481404 -0.000738972 0)
(0.000733163 -0.000405034 0)
(0.000488525 5.35955e-05 0)
(-0.000361066 0.000541133 0)
(-0.00182327 0.00100721 0)
(-0.00386888 0.00143621 0)
(-0.00646093 0.00183101 0)
(-0.00956716 0.00220138 0)
(-0.0131626 0.00255651 0)
(-0.0172265 0.00290127 0)
(-0.0217363 0.00323482 0)
(-0.0266612 0.00355056 0)
(-0.0319562 0.00383689 0)
(-0.0375568 0.00407826 0)
(-0.0433762 0.00425626 0)
(-0.0493033 0.00435094 0)
(-0.055203 0.0043421 0)
(-0.0609179 0.0042108 0)
(-0.066273 0.00394097 0)
(-0.0710809 0.00352106 0)
(-0.0751497 0.00294581 0)
(-0.0782927 0.00221777 0)
(-0.0803379 0.00134853 0)
(-0.0811395 0.00035949 0)
(-0.080588 -0.000718133 0)
(-0.0786207 -0.00184373 0)
(-0.0752288 -0.00296888 0)
(-0.0704636 -0.00404021 0)
(-0.0644379 -0.00500263 0)
(-0.0573249 -0.00580315 0)
(-0.0493525 -0.0063951 0)
(-0.0407938 -0.00674214 0)
(-0.0319546 -0.00682178 0)
(-0.0231567 -0.00662791 0)
(-0.0147206 -0.00617183 0)
(-0.006947 -0.0054817 0)
(-9.88845e-05 -0.00460044 0)
(0.00561282 -0.00358221 0)
(0.0100411 -0.00248703 0)
(0.0131088 -0.00137568 0)
(0.0148102 -0.000305766 0)
(0.0152085 0.000670781 0)
(0.014431 0.00150794 0)
(0.0126654 0.00216139 0)
(0.0101582 0.00258161 0)
(0.00721904 0.00270489 0)
(0.00423897 0.00244744 0)
(0.00173374 0.00172568 0)
(0.000184794 0.00059541 0)
(0.000109493 -0.000803512 0)
(0.000240579 -0.00090784 0)
(-0.00014354 -0.0001105 0)
(-0.00130295 0.00103003 0)
(-0.00334368 0.00226389 0)
(-0.0062767 0.00347048 0)
(-0.0100721 0.00460727 0)
(-0.0146887 0.00567278 0)
(-0.0200871 0.00668079 0)
(-0.026231 0.00764414 0)
(-0.0330822 0.00856615 0)
(-0.0405937 0.00943726 0)
(-0.0487003 0.0102349 0)
(-0.0573124 0.0109255 0)
(-0.0663097 0.0114667 0)
(-0.0755388 0.0118114 0)
(-0.0848128 0.0119103 0)
(-0.0939138 0.0117163 0)
(-0.102598 0.0111883 0)
(-0.110603 0.0102946 0)
(-0.117659 0.00901741 0)
(-0.123499 0.00735568 0)
(-0.127874 0.00532812 0)
(-0.130563 0.00297489 0)
(-0.131388 0.000358018 0)
(-0.130228 -0.00243964 0)
(-0.127022 -0.00531594 0)
(-0.121787 -0.00815473 0)
(-0.114611 -0.0108318 0)
(-0.105664 -0.0132218 0)
(-0.0951851 -0.015206 0)
(-0.083485 -0.0166808 0)
(-0.0709283 -0.0175657 0)
(-0.0579216 -0.0178098 0)
(-0.0448945 -0.0173976 0)
(-0.0322794 -0.0163514 0)
(-0.0204892 -0.0147306 0)
(-0.00989559 -0.0126279 0)
(-0.000808505 -0.0101631 0)
(0.00653945 -0.00747386 0)
(0.0120061 -0.00470498 0)
(0.0155461 -0.00199891 0)
(0.0172122 0.000509913 0)
(0.0171518 0.00269706 0)
(0.0156043 0.00444314 0)
(0.012896 0.00562333 0)
(0.00943898 0.00609439 0)
(0.00574362 0.00568803 0)
(0.00247838 0.00423735 0)
(0.000290501 0.0017016 0)
(5.45416e-05 -0.000846866 0)
(-0.000346794 -0.000473867 0)
(-0.00168852 0.0011386 0)
(-0.00413464 0.00325522 0)
(-0.0077243 0.00550789 0)
(-0.0124422 0.00771797 0)
(-0.0182481 0.00982035 0)
(-0.0250962 0.011809 0)
(-0.0329417 0.0136984 0)
(-0.0417378 0.0154992 0)
(-0.0514282 0.0172051 0)
(-0.0619372 0.0187879 0)
(-0.0731608 0.0201987 0)
(-0.0849598 0.0213707 0)
(-0.0971551 0.0222252 0)
(-0.109527 0.0226773 0)
(-0.121819 0.0226429 0)
(-0.133741 0.0220454 0)
(-0.14498 0.0208222 0)
(-0.155211 0.0189313 0)
(-0.164108 0.0163571 0)
(-0.171363 0.0131142 0)
(-0.176693 0.00925139 0)
(-0.17986 0.00485222 0)
(-0.180679 3.45138e-05 0)
(-0.179029 -0.00505259 0)
(-0.174864 -0.0102315 0)
(-0.168216 -0.0153064 0)
(-0.159201 -0.0200713 0)
(-0.148014 -0.0243207 0)
(-0.134933 -0.0278611 0)
(-0.120309 -0.0305229 0)
(-0.104556 -0.0321725 0)
(-0.0881385 -0.0327231 0)
(-0.0715548 -0.0321427 0)
(-0.0553127 -0.0304594 0)
(-0.0399086 -0.027762 0)
(-0.0258016 -0.0241954 0)
(-0.0133901 -0.0199522 0)
(-0.00298943 -0.0152594 0)
(0.00518476 -0.0103638 0)
(0.0110292 -0.00551694 0)
(0.0145605 -0.000961925 0)
(0.0159146 0.00306965 0)
(0.0153433 0.00635609 0)
(0.01321 0.0086729 0)
(0.0099827 0.00977788 0)
(0.00624475 0.00940081 0)
(0.00276886 0.00725804 0)
(0.000330998 0.00311234 0)
(-2.278e-05 -0.000536124 0)
(-0.00114103 0.000851979 0)
(-0.00369533 0.00367388 0)
(-0.00771709 0.00705988 0)
(-0.0131381 0.0105695 0)
(-0.0198943 0.0139945 0)
(-0.0279245 0.0172625 0)
(-0.0371737 0.0203683 0)
(-0.0475905 0.0233251 0)
(-0.0591168 0.0261345 0)
(-0.0716765 0.0287707 0)
(-0.0851633 0.0311765 0)
(-0.0994322 0.0332658 0)
(-0.114294 0.0349298 0)
(-0.129513 0.0360464 0)
(-0.14481 0.0364896 0)
(-0.159869 0.0361402 0)
(-0.174343 0.0348953 0)
(-0.187872 0.0326779 0)
(-0.200088 0.0294447 0)
(-0.210639 0.0251931 0)
(-0.219194 0.0199651 0)
(-0.225461 0.0138501 0)
(-0.229197 0.00698422 0)
(-0.230215 -0.000451879 0)
(-0.228398 -0.00823816 0)
(-0.223701 -0.0161186 0)
(-0.216156 -0.0238158 0)
(-0.205877 -0.0310404 0)
(-0.193065 -0.037504 0)
(-0.177999 -0.0429336 0)
(-0.161042 -0.0470871 0)
(-0.142629 -0.0497693 0)
(-0.123259 -0.0508466 0)
(-0.103474 -0.0502593 0)
(-0.0838459 -0.0480307 0)
(-0.0649429 -0.0442698 0)
(-0.0473087 -0.0391681 0)
(-0.0314312 -0.0329898 0)
(-0.0177154 -0.0260561 0)
(-0.00646053 -0.0187253 0)
(0.00215776 -0.0113718 0)
(0.00809953 -0.00436951 0)
(0.0114664 0.00192134 0)
(0.0124971 0.00715396 0)
(0.0115647 0.0109837 0)
(0.00916598 0.0130513 0)
(0.00593054 0.0129655 0)
(0.00269813 0.0102984 0)
(0.000329253 0.00457874 0)
(-0.000113659 0.000224434 0)
(-0.00207672 0.00326262 0)
(-0.00603097 0.00773166 0)
(-0.0118421 0.0126909 0)
(-0.0193031 0.0176812 0)
(-0.028284 0.0225028 0)
(-0.0386935 0.0270987 0)
(-0.0504628 0.0314742 0)
(-0.0635309 0.0356411 0)
(-0.0778271 0.0395852 0)
(-0.0932537 0.0432519 0)
(-0.109673 0.0465446 0)
(-0.126901 0.049331 0)
(-0.1447 0.051454 0)
(-0.162787 0.052745 0)
(-0.180833 0.0530379 0)
(-0.198477 0.0521823 0)
(-0.215336 0.0500564 0)
(-0.23102 0.0465778 0)
(-0.245144 0.0417119 0)
(-0.257342 0.0354783 0)
(-0.267281 0.0279538 0)
(-0.274664 0.0192729 0)
(-0.279246 0.00962646 0)
(-0.280837 -0.000743262 0)
(-0.279307 -0.0115489 0)
(-0.274595 -0.0224595 0)
(-0.266709 -0.0331195 0)
(-0.25574 -0.0431573 0)
(-0.241858 -0.0522 0)
(-0.225325 -0.0598898 0)
(-0.206489 -0.065903 0)
(-0.185785 -0.0699697 0)
(-0.163727 -0.0718942 0)
(-0.140896 -0.0715726 0)
(-0.117917 -0.0690066 0)
(-0.0954346 -0.0643115 0)
(-0.0740834 -0.0577149 0)
(-0.0544513 -0.0495482 0)
(-0.0370474 -0.0402275 0)
(-0.0222706 -0.0302305 0)
(-0.0103856 -0.0200683 0)
(-0.00150507 -0.0102608 0)
(0.00441871 -0.0013187 0)
(0.00759517 0.00626309 0)
(0.0083881 0.0120009 0)
(0.00730687 0.0153996 0)
(0.00501024 0.0159306 0)
(0.00237365 0.0130078 0)
(0.000301914 0.00593527 0)
(-0.000214698 0.00149467 0)
(-0.00311124 0.00689214 0)
(-0.00859701 0.0134798 0)
(-0.0163432 0.0203223 0)
(-0.0259815 0.0270051 0)
(-0.0373047 0.0333814 0)
(-0.0501847 0.0394376 0)
(-0.0645348 0.0452017 0)
(-0.0802823 0.0506852 0)
(-0.0973418 0.0558527 0)
(-0.115593 0.060612 0)
(-0.13487 0.0648185 0)
(-0.154949 0.0682874 0)
(-0.175556 0.0708105 0)
(-0.196367 0.0721738 0)
(-0.217019 0.072175 0)
(-0.237124 0.0706401 0)
(-0.25628 0.0674371 0)
(-0.274087 0.062487 0)
(-0.290156 0.0557713 0)
(-0.304121 0.0473367 0)
(-0.315649 0.0372962 0)
(-0.324443 0.0258281 0)
(-0.330249 0.0131725 0)
(-0.332861 -0.000373533 0)
(-0.332123 -0.0144645 0)
(-0.327937 -0.0287021 0)
(-0.32027 -0.0426579 0)
(-0.309161 -0.0558804 0)
(-0.294735 -0.0679102 0)
(-0.277205 -0.0782976 0)
(-0.256885 -0.0866248 0)
(-0.234191 -0.0925305 0)
(-0.209637 -0.0957362 0)
(-0.18383 -0.0960706 0)
(-0.157448 -0.0934916 0)
(-0.131215 -0.0881003 0)
(-0.105865 -0.0801456 0)
(-0.0821035 -0.0700167 0)
(-0.0605642 -0.0582244 0)
(-0.0417686 -0.0453723 0)
(-0.0260928 -0.0321223 0)
(-0.0137432 -0.0191601 0)
(-0.00474228 -0.00716782 0)
(0.00107334 0.0031904 0)
(0.00404599 0.0112675 0)
(0.0046864 0.0164151 0)
(0.00367031 0.0179541 0)
(0.00188763 0.0151388 0)
(0.000261971 0.00707784 0)
(-0.00032306 0.00331715 0)
(-0.00421202 0.0118318 0)
(-0.0113093 0.0210271 0)
(-0.0210723 0.030061 0)
(-0.0329568 0.0386332 0)
(-0.0466715 0.0467008 0)
(-0.0620476 0.0543237 0)
(-0.0789783 0.0615665 0)
(-0.0973771 0.0684424 0)
(-0.117143 0.0748901 0)
(-0.138133 0.0807731 0)
(-0.160154 0.0858928 0)
(-0.182954 0.0900093 0)
(-0.206226 0.0928634 0)
(-0.22962 0.0942 0)
(-0.252756 0.0937878 0)
(-0.275232 0.0914374 0)
(-0.296643 0.0870145 0)
(-0.316591 0.0804499 0)
(-0.334693 0.0717447 0)
(-0.350588 0.0609727 0)
(-0.363945 0.0482791 0)
(-0.374461 0.0338789 0)
(-0.381868 0.0180523 0)
(-0.385932 0.00114032 0)
(-0.386462 -0.0164639 0)
(-0.383312 -0.0343051 0)
(-0.376391 -0.0518886 0)
(-0.365675 -0.0686868 0)
(-0.35122 -0.084152 0)
(-0.333174 -0.0977362 0)
(-0.311794 -0.108915 0)
(-0.28745 -0.117216 0)
(-0.260638 -0.122252 0)
(-0.231971 -0.123758 0)
(-0.20217 -0.121617 0)
(-0.172034 -0.115887 0)
(-0.142407 -0.106815 0)
(-0.114128 -0.0948345 0)
(-0.0879818 -0.0805447 0)
(-0.0646411 -0.0646817 0)
(-0.044625 -0.0480728 0)
(-0.0282615 -0.031592 0)
(-0.0156676 -0.0161191 0)
(-0.00674322 -0.00251455 0)
(-0.00117927 0.00838743 0)
(0.00152587 0.0157659 0)
(0.00205832 0.0187786 0)
(0.00131151 0.0165237 0)
(0.000218933 0.00794658 0)
(-0.000436124 0.00571908 0)
(-0.00534669 0.018133 0)
(-0.0140866 0.0304268 0)
(-0.0258871 0.041949 0)
(-0.0400207 0.0525902 0)
(-0.0561095 0.0624646 0)
(-0.0739429 0.0717374 0)
(-0.0933923 0.080524 0)
(-0.114356 0.088842 0)
(-0.136717 0.0966008 0)
(-0.160314 0.103615 0)
(-0.184928 0.109629 0)
(-0.210284 0.114348 0)
(-0.236057 0.117466 0)
(-0.261882 0.118693 0)
(-0.287371 0.117776 0)
(-0.312125 0.114517 0)
(-0.335744 0.108787 0)
(-0.357839 0.100528 0)
(-0.378036 0.0897609 0)
(-0.395982 0.0765822 0)
(-0.411345 0.061163 0)
(-0.423814 0.0437453 0)
(-0.433104 0.024639 0)
(-0.438954 0.00421801 0)
(-0.441135 -0.0170877 0)
(-0.439453 -0.0387777 0)
(-0.433755 -0.0602999 0)
(-0.423946 -0.0810571 0)
(-0.410001 -0.100417 0)
(-0.391985 -0.117729 0)
(-0.370069 -0.132353 0)
(-0.344553 -0.143689 0)
(-0.315876 -0.151216 0)
(-0.284631 -0.154538 0)
(-0.251551 -0.153425 0)
(-0.217499 -0.147856 0)
(-0.183424 -0.13804 0)
(-0.150313 -0.124426 0)
(-0.119126 -0.107692 0)
(-0.0907236 -0.0887065 0)
(-0.0658085 -0.0684779 0)
(-0.0448707 -0.0480941 0)
(-0.0281558 -0.0286655 0)
(-0.0156534 -0.0112824 0)
(-0.0071049 0.00300346 0)
(-0.00202554 0.0131733 0)
(0.000274937 0.0182101 0)
(0.000693434 0.017055 0)
(0.00017913 0.00851359 0)
(-0.000550242 0.00871123 0)
(-0.00648109 0.0258066 0)
(-0.0168456 0.0416769 0)
(-0.0306448 0.0559663 0)
(-0.0469669 0.0688359 0)
(-0.0653484 0.0806121 0)
(-0.0855375 0.0915968 0)
(-0.107383 0.10197 0)
(-0.130769 0.111758 0)
(-0.155561 0.120837 0)
(-0.181581 0.128972 0)
(-0.208591 0.13585 0)
(-0.2363 0.141124 0)
(-0.264372 0.144447 0)
(-0.292439 0.145499 0)
(-0.320114 0.144015 0)
(-0.347005 0.139794 0)
(-0.372724 0.132713 0)
(-0.396894 0.122726 0)
(-0.419149 0.109872 0)
(-0.439142 0.0942639 0)
(-0.456543 0.076092 0)
(-0.471038 0.0556179 0)
(-0.48233 0.0331723 0)
(-0.490142 0.00915243 0)
(-0.494216 -0.0159847 0)
(-0.494321 -0.0417072 0)
(-0.490251 -0.067418 0)
(-0.48184 -0.0924628 0)
(-0.468977 -0.116134 0)
(-0.451627 -0.137688 0)
(-0.429852 -0.156364 0)
(-0.40384 -0.171423 0)
(-0.373934 -0.182186 0)
(-0.340655 -0.188091 0)
(-0.304709 -0.188752 0)
(-0.266982 -0.184012 0)
(-0.228509 -0.173993 0)
(-0.190424 -0.15912 0)
(-0.15388 -0.140117 0)
(-0.119966 -0.117977 0)
(-0.0896179 -0.0939013 0)
(-0.0635404 -0.0692201 0)
(-0.042158 -0.0453138 0)
(-0.0255897 -0.0235472 0)
(-0.0136545 -0.00523012 0)
(-0.00589829 0.00838724 0)
(-0.00162896 0.0160921 0)
(5.8697e-05 0.016662 0)
(0.000145654 0.00877054 0)
(-0.000661616 0.012286 0)
(-0.0075782 0.0348216 0)
(-0.0194996 0.0547209 0)
(-0.0352004 0.0720322 0)
(-0.0535897 0.0872681 0)
(-0.0741224 0.101021 0)
(-0.0965062 0.11376 0)
(-0.120568 0.125743 0)
(-0.146175 0.137007 0)
(-0.173179 0.147399 0)
(-0.201386 0.15663 0)
(-0.230544 0.164333 0)
(-0.260352 0.170113 0)
(-0.29047 0.173587 0)
(-0.32053 0.174415 0)
(-0.350152 0.172321 0)
(-0.378953 0.167106 0)
(-0.406555 0.158652 0)
(-0.432591 0.146928 0)
(-0.456707 0.131983 0)
(-0.478564 0.113948 0)
(-0.497839 0.0930268 0)
(-0.514226 0.0694975 0)
(-0.527435 0.0437063 0)
(-0.53719 0.0160668 0)
(-0.543225 -0.0129461 0)
(-0.545295 -0.0427846 0)
(-0.543157 -0.0728235 0)
(-0.536587 -0.102372 0)
(-0.525392 -0.13067 0)
(-0.509424 -0.156894 0)
(-0.488612 -0.180177 0)
(-0.463 -0.199638 0)
(-0.432781 -0.214428 0)
(-0.398342 -0.223785 0)
(-0.360296 -0.227115 0)
(-0.319491 -0.224065 0)
(-0.277003 -0.2146 0)
(-0.234085 -0.19905 0)
(-0.19209 -0.178138 0)
(-0.152362 -0.152952 0)
(-0.116126 -0.124883 0)
(-0.0843681 -0.0955309 0)
(-0.0577608 -0.0665937 0)
(-0.0366107 -0.0397667 0)
(-0.0208566 -0.0166747 0)
(-0.0100993 0.00115465 0)
(-0.00365108 0.0122769 0)
(-0.000589657 0.0152869 0)
(0.000119122 0.0087165 0)
(-0.000765273 0.0164158 0)
(-0.00859864 0.0451041 0)
(-0.0219599 0.0694483 0)
(-0.0394091 0.0900083 0)
(-0.0596876 0.107726 0)
(-0.0821734 0.123511 0)
(-0.106535 0.138027 0)
(-0.132578 0.151625 0)
(-0.160152 0.164354 0)
(-0.189095 0.176031 0)
(-0.219198 0.186319 0)
(-0.2502 0.194798 0)
(-0.281794 0.20103 0)
(-0.313635 0.204602 0)
(-0.34536 0.205157 0)
(-0.376593 0.202412 0)
(-0.406958 0.19617 0)
(-0.436086 0.186322 0)
(-0.463618 0.172846 0)
(-0.489212 0.15581 0)
(-0.512546 0.135357 0)
(-0.533317 0.111711 0)
(-0.551245 0.0851667 0)
(-0.566069 0.0560846 0)
(-0.57754 0.0248903 0)
(-0.585417 -0.00793163 0)
(-0.589461 -0.0418342 0)
(-0.589425 -0.0761861 0)
(-0.585045 -0.110289 0)
(-0.576058 -0.143358 0)
(-0.562208 -0.174526 0)
(-0.543279 -0.202844 0)
(-0.519136 -0.227306 0)
(-0.489774 -0.24689 0)
(-0.45538 -0.260617 0)
(-0.416391 -0.267636 0)
(-0.373534 -0.26733 0)
(-0.327841 -0.259417 0)
(-0.280629 -0.244043 0)
(-0.23342 -0.22184 0)
(-0.187829 -0.193934 0)
(-0.145412 -0.161881 0)
(-0.107516 -0.127566 0)
(-0.0751448 -0.0930511 0)
(-0.0488747 -0.0604327 0)
(-0.0288291 -0.0317266 0)
(-0.0147037 -0.00880664 0)
(-0.00583115 0.00659807 0)
(-0.00126698 0.0128619 0)
(9.77564e-05 0.00834706 0)
(-0.000856642 0.0210519 0)
(-0.00950282 0.0565366 0)
(-0.0241386 0.0856964 0)
(-0.0431304 0.109702 0)
(-0.0650674 0.129995 0)
(-0.089257 0.147847 0)
(-0.11533 0.164146 0)
(-0.143067 0.179343 0)
(-0.172302 0.193507 0)
(-0.202858 0.206426 0)
(-0.234514 0.217715 0)
(-0.266998 0.226906 0)
(-0.299997 0.233524 0)
(-0.333165 0.237128 0)
(-0.366137 0.237345 0)
(-0.398538 0.23389 0)
(-0.429995 0.226567 0)
(-0.460145 0.215277 0)
(-0.48864 0.200017 0)
(-0.515154 0.18087 0)
(-0.539392 0.158008 0)
(-0.56109 0.131677 0)
(-0.580015 0.102196 0)
(-0.59596 0.0699439 0)
(-0.608732 0.0353546 0)
(-0.618142 -0.00108557 0)
(-0.623989 -0.0388446 0)
(-0.626053 -0.0773111 0)
(-0.624061 -0.115812 0)
(-0.617703 -0.153581 0)
(-0.606634 -0.189745 0)
(-0.590495 -0.22332 0)
(-0.568959 -0.253212 0)
(-0.541787 -0.278248 0)
(-0.508904 -0.297227 0)
(-0.470486 -0.309014 0)
(-0.427031 -0.31266 0)
(-0.379422 -0.307541 0)
(-0.328937 -0.293499 0)
(-0.277198 -0.270955 0)
(-0.226062 -0.240966 0)
(-0.177444 -0.205193 0)
(-0.133117 -0.165788 0)
(-0.0945162 -0.12522 0)
(-0.0625934 -0.0860657 0)
(-0.0377481 -0.0508293 0)
(-0.0198354 -0.0218273 0)
(-0.00824098 -0.00115175 0)
(-0.00200326 0.00929055 0)
(7.82849e-05 0.00764556 0)
(-0.000930419 0.0261247 0)
(-0.0102519 0.0689599 0)
(-0.0259521 0.103253 0)
(-0.0462325 0.130869 0)
(-0.0695506 0.15381 0)
(-0.095149 0.173749 0)
(-0.122621 0.191817 0)
(-0.151722 0.208578 0)
(-0.182267 0.224126 0)
(-0.214062 0.238222 0)
(-0.246874 0.250436 0)
(-0.280422 0.260257 0)
(-0.314384 0.267171 0)
(-0.348407 0.270714 0)
(-0.382121 0.2705 0)
(-0.415149 0.266239 0)
(-0.447117 0.257744 0)
(-0.477667 0.24493 0)
(-0.506463 0.227817 0)
(-0.533208 0.206521 0)
(-0.557646 0.181249 0)
(-0.579569 0.152287 0)
(-0.598811 0.119985 0)
(-0.615243 0.0847465 0)
(-0.628751 0.0470146 0)
(-0.639225 0.00726826 0)
(-0.646533 -0.0339861 0)
(-0.65051 -0.0761838 0)
(-0.650908 -0.118711 0)
(-0.647405 -0.16086 0)
(-0.639597 -0.201811 0)
(-0.627011 -0.240595 0)
(-0.609139 -0.276091 0)
(-0.585495 -0.30702 0)
(-0.555704 -0.331991 0)
(-0.519603 -0.349579 0)
(-0.477359 -0.358457 0)
(-0.429573 -0.357567 0)
(-0.377346 -0.346314 0)
(-0.32228 -0.324753 0)
(-0.266394 -0.293714 0)
(-0.21194 -0.254841 0)
(-0.161161 -0.210497 0)
(-0.11602 -0.163568 0)
(-0.0779703 -0.117188 0)
(-0.0478075 -0.0744673 0)
(-0.025642 -0.0382931 0)
(-0.0109702 -0.0112339 0)
(-0.00283656 0.00443578 0)
(5.61809e-05 0.00657708 0)
(-0.000982535 0.0315444 0)
(-0.0108113 0.0821758 0)
(-0.0273253 0.121863 0)
(-0.0485982 0.153224 0)
(-0.0729795 0.178864 0)
(-0.0996535 0.200891 0)
(-0.128174 0.220697 0)
(-0.15827 0.238968 0)
(-0.189734 0.255827 0)
(-0.222356 0.271012 0)
(-0.255886 0.284051 0)
(-0.290032 0.29439 0)
(-0.324459 0.301481 0)
(-0.358807 0.304836 0)
(-0.392694 0.304057 0)
(-0.425737 0.298855 0)
(-0.457562 0.289052 0)
(-0.487816 0.274589 0)
(-0.516188 0.255524 0)
(-0.542415 0.232018 0)
(-0.566296 0.204333 0)
(-0.587691 0.172805 0)
(-0.606519 0.13783 0)
(-0.622743 0.0998424 0)
(-0.636347 0.0592963 0)
(-0.647315 0.0166569 0)
(-0.655608 -0.0276045 0)
(-0.661136 -0.0729903 0)
(-0.663714 -0.118974 0)
(-0.663046 -0.164952 0)
(-0.658713 -0.210203 0)
(-0.65017 -0.253847 0)
(-0.63677 -0.2948 0)
(-0.617806 -0.331757 0)
(-0.592594 -0.363195 0)
(-0.560594 -0.387436 0)
(-0.521552 -0.402766 0)
(-0.475656 -0.407627 0)
(-0.423669 -0.400858 0)
(-0.367005 -0.381967 0)
(-0.307699 -0.351357 0)
(-0.248258 -0.310462 0)
(-0.191388 -0.261729 0)
(-0.139654 -0.208418 0)
(-0.0951344 -0.154273 0)
(-0.059173 -0.103141 0)
(-0.0322655 -0.0586384 0)
(-0.0141106 -0.0239652 0)
(-0.0038079 -0.00188547 0)
(2.66286e-05 0.00508582 0)
(-0.00100879 0.0372034 0)
(-0.011151 0.0959526 0)
(-0.0281949 0.141231 0)
(-0.0501294 0.17644 0)
(-0.0752235 0.204816 0)
(-0.102609 0.228917 0)
(-0.131799 0.250411 0)
(-0.162492 0.270117 0)
(-0.194455 0.28819 0)
(-0.227459 0.304352 0)
(-0.261238 0.318088 0)
(-0.295482 0.328804 0)
(-0.329846 0.335918 0)
(-0.363952 0.33892 0)
(-0.39741 0.337402 0)
(-0.42983 0.331079 0)
(-0.460838 0.319795 0)
(-0.490099 0.303529 0)
(-0.517328 0.282389 0)
(-0.542312 0.256604 0)
(-0.564913 0.226503 0)
(-0.585073 0.19249 0)
(-0.602799 0.155016 0)
(-0.618154 0.114555 0)
(-0.631224 0.0715723 0)
(-0.642095 0.0265181 0)
(-0.650828 -0.0201803 0)
(-0.657424 -0.0681023 0)
(-0.661787 -0.116831 0)
(-0.66368 -0.165896 0)
(-0.662721 -0.214725 0)
(-0.658353 -0.262582 0)
(-0.649851 -0.308506 0)
(-0.636345 -0.351253 0)
(-0.616888 -0.389266 0)
(-0.590565 -0.420691 0)
(-0.556656 -0.443471 0)
(-0.514832 -0.45553 0)
(-0.465357 -0.455046 0)
(-0.409258 -0.440802 0)
(-0.348387 -0.412534 0)
(-0.285343 -0.371214 0)
(-0.223215 -0.319147 0)
(-0.165188 -0.259849 0)
(-0.114079 -0.197675 0)
(-0.0719395 -0.137322 0)
(-0.0398166 -0.0833235 0)
(-0.0177422 -0.0397091 0)
(-0.00495464 -0.00989957 0)
(-1.51591e-05 0.00309558 0)
(-0.00100697 0.0429801 0)
(-0.0112493 0.110031 0)
(-0.0285132 0.161032 0)
(-0.0507519 0.200164 0)
(-0.0761842 0.231294 0)
(-0.103895 0.257441 0)
(-0.133356 0.280558 0)
(-0.164229 0.301604 0)
(-0.196255 0.320773 0)
(-0.22918 0.337772 0)
(-0.262722 0.352051 0)
(-0.296553 0.362973 0)
(-0.330312 0.369925 0)
(-0.363609 0.372374 0)
(-0.396044 0.36991 0)
(-0.427224 0.36226 0)
(-0.456785 0.3493 0)
(-0.484412 0.331061 0)
(-0.509865 0.307723 0)
(-0.532984 0.279594 0)
(-0.553705 0.247089 0)
(-0.572049 0.21069 0)
(-0.588115 0.170913 0)
(-0.60206 0.128273 0)
(-0.614066 0.0832518 0)
(-0.624314 0.0362821 0)
(-0.632957 -0.0122557 0)
(-0.640093 -0.0620204 0)
(-0.645725 -0.112715 0)
(-0.649703 -0.164017 0)
(-0.651722 -0.215535 0)
(-0.651276 -0.266727 0)
(-0.647643 -0.316826 0)
(-0.639876 -0.364747 0)
(-0.626849 -0.409012 0)
(-0.607333 -0.447715 0)
(-0.58016 -0.478559 0)
(-0.544431 -0.498998 0)
(-0.499787 -0.506515 0)
(-0.446666 -0.499028 0)
(-0.386501 -0.475365 0)
(-0.321747 -0.435723 0)
(-0.255709 -0.381959 0)
(-0.192128 -0.317608 0)
(-0.134619 -0.247549 0)
(-0.0860969 -0.177397 0)
(-0.0483524 -0.112799 0)
(-0.021922 -0.0588566 0)
(-0.00630707 -0.0198666 0)
(-7.31755e-05 0.000512277 0)
(-0.000975254 0.048743 0)
(-0.0110925 0.124134 0)
(-0.02825 0.180921 0)
(-0.0504186 0.224021 0)
(-0.0757993 0.25791 0)
(-0.103438 0.286064 0)
(-0.13276 0.310724 0)
(-0.163389 0.332996 0)
(-0.195035 0.353122 0)
(-0.227421 0.370797 0)
(-0.260243 0.385439 0)
(-0.293159 0.396371 0)
(-0.325793 0.402951 0)
(-0.357745 0.40463 0)
(-0.388611 0.400997 0)
(-0.418003 0.391803 0)
(-0.445577 0.376971 0)
(-0.471052 0.356603 0)
(-0.494236 0.330961 0)
(-0.515033 0.300451 0)
(-0.533452 0.265581 0)
(-0.549592 0.22692 0)
(-0.563633 0.185052 0)
(-0.575812 0.140535 0)
(-0.586389 0.0938647 0)
(-0.595624 0.0454596 0)
(-0.603743 -0.00434738 0)
(-0.610931 -0.0552899 0)
(-0.617284 -0.107186 0)
(-0.622752 -0.159865 0)
(-0.627136 -0.21312 0)
(-0.630034 -0.266635 0)
(-0.630801 -0.319887 0)
(-0.62852 -0.372038 0)
(-0.621995 -0.42181 0)
(-0.609803 -0.467393 0)
(-0.590404 -0.506403 0)
(-0.562357 -0.535952 0)
(-0.524617 -0.55288 0)
(-0.476879 -0.554176 0)
(-0.419908 -0.537557 0)
(-0.355736 -0.502116 0)
(-0.287622 -0.448873 0)
(-0.219701 -0.381027 0)
(-0.156366 -0.303762 0)
(-0.101509 -0.223597 0)
(-0.0578622 -0.14746 0)
(-0.0266773 -0.0818 0)
(-0.00788573 -0.032067 0)
(-0.000150866 -0.00277176 0)
(-0.000914205 0.0543559 0)
(-0.0106774 0.137972 0)
(-0.0273951 0.200538 0)
(-0.0491118 0.247624 0)
(-0.0740457 0.284266 0)
(-0.10121 0.314378 0)
(-0.129985 0.34049 0)
(-0.15995 0.363861 0)
(-0.190784 0.384787 0)
(-0.222183 0.402961 0)
(-0.253826 0.417768 0)
(-0.285357 0.428502 0)
(-0.31639 0.43449 0)
(-0.346523 0.435174 0)
(-0.375357 0.430154 0)
(-0.40252 0.419217 0)
(-0.427698 0.402346 0)
(-0.450656 0.379725 0)
(-0.471257 0.351717 0)
(-0.489471 0.318831 0)
(-0.505375 0.281676 0)
(-0.519139 0.240908 0)
(-0.531008 0.197175 0)
(-0.541276 0.151075 0)
(-0.55026 0.103119 0)
(-0.558268 0.0537076 0)
(-0.56558 0.00313262 0)
(-0.572445 -0.0484097 0)
(-0.579028 -0.100834 0)
(-0.585379 -0.154107 0)
(-0.591412 -0.208196 0)
(-0.596864 -0.263007 0)
(-0.60123 -0.318289 0)
(-0.603713 -0.373507 0)
(-0.603178 -0.427693 0)
(-0.598146 -0.479283 0)
(-0.586854 -0.525996 0)
(-0.567422 -0.564797 0)
(-0.538144 -0.592033 0)
(-0.49789 -0.603807 0)
(-0.446559 -0.596608 0)
(-0.385463 -0.568132 0)
(-0.31749 -0.518128 0)
(-0.246902 -0.448989 0)
(-0.178736 -0.365835 0)
(-0.117904 -0.275934 0)
(-0.0682597 -0.187596 0)
(-0.032001 -0.108901 0)
(-0.00970096 -0.0467853 0)
(-0.000251167 -0.00687266 0)
(-0.000824982 0.0596833 0)
(-0.0100103 0.151257 0)
(-0.0259587 0.219524 0)
(-0.0468444 0.270585 0)
(-0.0709398 0.309965 0)
(-0.0972355 0.341982 0)
(-0.125065 0.369448 0)
(-0.153963 0.393779 0)
(-0.183573 0.415338 0)
(-0.213568 0.433822 0)
(-0.24361 0.448594 0)
(-0.273337 0.458918 0)
(-0.30236 0.464101 0)
(-0.330284 0.463583 0)
(-0.356727 0.456985 0)
(-0.381346 0.444142 0)
(-0.403869 0.425114 0)
(-0.424113 0.400176 0)
(-0.442 0.369799 0)
(-0.457566 0.334601 0)
(-0.470947 0.295289 0)
(-0.48237 0.2526 0)
(-0.492123 0.207241 0)
(-0.500537 0.159842 0)
(-0.507956 0.110919 0)
(-0.514711 0.0608617 0)
(-0.521103 0.00992217 0)
(-0.527414 -0.0417621 0)
(-0.533861 -0.0941816 0)
(-0.540568 -0.147411 0)
(-0.547558 -0.201565 0)
(-0.55471 -0.256747 0)
(-0.561696 -0.312968 0)
(-0.567911 -0.37002 0)
(-0.572389 -0.42731 0)
(-0.573747 -0.483658 0)
(-0.570174 -0.53708 0)
(-0.559524 -0.584633 0)
(-0.539552 -0.622411 0)
(-0.508325 -0.645797 0)
(-0.464759 -0.650063 0)
(-0.409189 -0.631307 0)
(-0.343779 -0.587588 0)
(-0.272565 -0.519943 0)
(-0.200979 -0.432899 0)
(-0.134886 -0.334144 0)
(-0.0793818 -0.233343 0)
(-0.03785 -0.14046 0)
(-0.0117519 -0.0642927 0)
(-0.000376792 -0.0119095 0)
(-0.000711055 0.0645967 0)
(-0.00910838 0.163711 0)
(-0.023971 0.237526 0)
(-0.0436593 0.292523 0)
(-0.0665375 0.334619 0)
(-0.0915853 0.368487 0)
(-0.118091 0.397205 0)
(-0.145545 0.422356 0)
(-0.173553 0.444377 0)
(-0.201767 0.462982 0)
(-0.22984 0.477521 0)
(-0.257407 0.487236 0)
(-0.28409 0.491424 0)
(-0.309511 0.489532 0)
(-0.333318 0.481213 0)
(-0.355209 0.466364 0)
(-0.374962 0.445125 0)
(-0.392451 0.417878 0)
(-0.40766 0.385201 0)
(-0.420681 0.347817 0)
(-0.431699 0.306525 0)
(-0.440979 0.262135 0)
(-0.448835 0.215397 0)
(-0.455608 0.166964 0)
(-0.461644 0.117353 0)
(-0.467271 0.0669332 0)
(-0.472785 0.0159268 0)
(-0.478469 -0.0355737 0)
(-0.484565 -0.087613 0)
(-0.491247 -0.140343 0)
(-0.49862 -0.193984 0)
(-0.506694 -0.248796 0)
(-0.515322 -0.305012 0)
(-0.524119 -0.362736 0)
(-0.532369 -0.421775 0)
(-0.538912 -0.481415 0)
(-0.542067 -0.540139 0)
(-0.539631 -0.595349 0)
(-0.529022 -0.643185 0)
(-0.507632 -0.678591 0)
(-0.473393 -0.695786 0)
(-0.425494 -0.689213 0)
(-0.365054 -0.654908 0)
(-0.295476 -0.591981 0)
(-0.222231 -0.503702 0)
(-0.151947 -0.397648 0)
(-0.0909936 -0.284637 0)
(-0.044146 -0.176678 0)
(-0.0140265 -0.0848294 0)
(-0.000529869 -0.0179991 0)
(-0.000576314 0.068979 0)
(-0.00799731 0.175072 0)
(-0.0214818 0.254211 0)
(-0.0396281 0.313077 0)
(-0.0609315 0.357859 0)
(-0.0843754 0.393523 0)
(-0.109208 0.423397 0)
(-0.134873 0.44923 0)
(-0.160942 0.471548 0)
(-0.18705 0.490095 0)
(-0.212844 0.504219 0)
(-0.237968 0.513154 0)
(-0.262064 0.516194 0)
(-0.284785 0.512805 0)
(-0.305819 0.502684 0)
(-0.324916 0.485796 0)
(-0.341909 0.462374 0)
(-0.356732 0.432902 0)
(-0.369425 0.398064 0)
(-0.380126 0.358682 0)
(-0.389056 0.315634 0)
(-0.396501 0.269786 0)
(-0.402777 0.221922 0)
(-0.408218 0.172702 0)
(-0.41315 0.122635 0)
(-0.417875 0.0720689 0)
(-0.422664 0.0211994 0)
(-0.427778 -0.0299138 0)
(-0.433458 -0.0813483 0)
(-0.439899 -0.133303 0)
(-0.447259 -0.18606 0)
(-0.455649 -0.239984 0)
(-0.465078 -0.295476 0)
(-0.475382 -0.352898 0)
(-0.486122 -0.412435 0)
(-0.496444 -0.473869 0)
(-0.504945 -0.536263 0)
(-0.509573 -0.597579 0)
(-0.507653 -0.654322 0)
(-0.496124 -0.701368 0)
(-0.47206 -0.732192 0)
(-0.433458 -0.739707 0)
(-0.380147 -0.717746 0)
(-0.314502 -0.662973 0)
(-0.241599 -0.576661 0)
(-0.168512 -0.465555 0)
(-0.1028 -0.341188 0)
(-0.0507776 -0.217634 0)
(-0.0165014 -0.108587 0)
(-0.000711785 -0.0252505 0)
(-0.000426382 0.0727301 0)
(-0.00671152 0.185108 0)
(-0.0185576 0.269271 0)
(-0.0348483 0.331908 0)
(-0.0542482 0.379341 0)
(-0.0757622 0.416754 0)
(-0.0986048 0.447695 0)
(-0.122177 0.474082 0)
(-0.146019 0.496544 0)
(-0.169749 0.514872 0)
(-0.193018 0.528426 0)
(-0.215487 0.536445 0)
(-0.236829 0.538232 0)
(-0.256739 0.533283 0)
(-0.274956 0.521348 0)
(-0.291287 0.502466 0)
(-0.305625 0.476964 0)
(-0.31796 0.445424 0)
(-0.328378 0.408631 0)
(-0.337053 0.36749 0)
(-0.344228 0.322945 0)
(-0.350189 0.275901 0)
(-0.355242 0.227161 0)
(-0.359693 0.17738 0)
(-0.363834 0.12705 0)
(-0.367928 0.0764983 0)
(-0.372208 0.0258939 0)
(-0.376895 -0.0247256 0)
(-0.38221 -0.0754527 0)
(-0.388346 -0.126506 0)
(-0.395484 -0.178196 0)
(-0.403798 -0.230935 0)
(-0.413416 -0.285231 0)
(-0.42436 -0.341635 0)
(-0.436456 -0.400644 0)
(-0.449185 -0.462508 0)
(-0.461511 -0.52691 0)
(-0.471706 -0.592527 0)
(-0.477245 -0.656516 0)
(-0.474891 -0.714081 0)
(-0.461092 -0.75839 0)
(-0.432749 -0.781136 0)
(-0.388282 -0.773969 0)
(-0.328706 -0.730733 0)
(-0.258238 -0.649961 0)
(-0.18398 -0.53668 0)
(-0.114466 -0.402468 0)
(-0.0576064 -0.263265 0)
(-0.0191423 -0.135695 0)
(-0.000923023 -0.0337601 0)
(-0.000266868 0.0757702 0)
(-0.00529132 0.193623 0)
(-0.0152799 0.282438 0)
(-0.0294401 0.348712 0)
(-0.0466433 0.398754 0)
(-0.0659365 0.437875 0)
(-0.0865116 0.469808 0)
(-0.107731 0.496639 0)
(-0.129105 0.519111 0)
(-0.15024 0.537082 0)
(-0.170798 0.549946 0)
(-0.190466 0.556955 0)
(-0.208957 0.557439 0)
(-0.226018 0.550931 0)
(-0.241444 0.537239 0)
(-0.255104 0.51648 0)
(-0.266949 0.489069 0)
(-0.277017 0.455684 0)
(-0.285435 0.417193 0)
(-0.292398 0.374571 0)
(-0.298153 0.32881 0)
(-0.302975 0.280839 0)
(-0.307144 0.231464 0)
(-0.310929 0.181328 0)
(-0.314578 0.130899 0)
(-0.318308 0.0804782 0)
(-0.322306 0.0302142 0)
(-0.326748 -0.0198715 0)
(-0.331822 -0.0698732 0)
(-0.337705 -0.120011 0)
(-0.344572 -0.170589 0)
(-0.352627 -0.222031 0)
(-0.362072 -0.274887 0)
(-0.373067 -0.329822 0)
(-0.385656 -0.387563 0)
(-0.399634 -0.448748 0)
(-0.414361 -0.513653 0)
(-0.428536 -0.581733 0)
(-0.439987 -0.651006 0)
(-0.445585 -0.717385 0)
(-0.441457 -0.774222 0)
(-0.42363 -0.812467 0)
(-0.389149 -0.821841 0)
(-0.33744 -0.793197 0)
(-0.271437 -0.721675 0)
(-0.197781 -0.609615 0)
(-0.125644 -0.467722 0)
(-0.0644758 -0.31335 0)
(-0.0219063 -0.166208 0)