/*--------------------------------*- C++ -*----------------------------------*\
  =========                 |
  \\      /  F ield         | OpenFOAM: The Open Source CFD Toolbox
   \\    /   O peration     | Website:  https://openfoam.org
    \\  /    A nd           | Version:  7
     \\/     M anipulation  |
\*---------------------------------------------------------------------------*/
FoamFile
{
    version     2.0;
    format      ascii;
    class       volScalarField;
    location    "450";
    object      p;
}
// * * * * * * * * * * * * * * * * * * * * * * * * * * * * * * * * * * * * * //

dimensions      [0 2 -2 0 0 0 0];

internalField   nonuniform List<scalar> 
2500
(
8.71429e-07
-8.51165e-05
-0.000402044
-0.000947307
-0.0016572
-0.00248347
-0.00339465
-0.00437021
-0.005396
-0.00646017
-0.00754984
-0.00864879
-0.00973619
-0.0107861
-0.0117677
-0.0126462
-0.0133841
-0.0139432
-0.0142872
-0.0143847
-0.0142124
-0.0137589
-0.0130274
-0.0120388
-0.0108335
-0.00947088
-0.00802829
-0.0065976
-0.00527996
-0.00417868
-0.00339115
-0.00300037
-0.00306717
-0.00362393
-0.0046709
-0.00617548
-0.00807469
-0.010281
-0.0126901
-0.01519
-0.017669
-0.0200238
-0.0221649
-0.0240192
-0.0255307
-0.0266595
-0.0273828
-0.0276965
-0.027636
-0.0273907
8.62381e-05
-6.23728e-06
-0.000295959
-0.000783802
-0.00141784
-0.00215944
-0.00298348
-0.003873
-0.00481573
-0.00580101
-0.00681717
-0.00784967
-0.00887992
-0.00988485
-0.0108369
-0.0117046
-0.0124538
-0.0130491
-0.0134563
-0.0136449
-0.0135914
-0.0132823
-0.0127177
-0.011914
-0.0109056
-0.00974524
-0.00850287
-0.00726307
-0.0061199
-0.00517021
-0.00450583
-0.00420533
-0.00432635
-0.00489944
-0.00592438
-0.00736958
-0.00917472
-0.0112562
-0.0135149
-0.0158457
-0.0181453
-0.0203195
-0.0222886
-0.02399
-0.0253777
-0.0264218
-0.0271071
-0.0274275
-0.0273902
-0.0271442
0.000414681
0.000272675
-3.09543e-05
-0.000490369
-0.00106837
-0.00173838
-0.00248359
-0.00329287
-0.00415806
-0.00507156
-0.00602443
-0.00700485
-0.00799716
-0.00898133
-0.00993287
-0.0108231
-0.0116198
-0.0122889
-0.012796
-0.0131092
-0.0132022
-0.0130573
-0.0126694
-0.0120487
-0.0112234
-0.0102401
-0.00916314
-0.00807233
-0.00705795
-0.00621419
-0.00563128
-0.0053871
-0.00553923
-0.00611853
-0.00712524
-0.00852829
-0.010268
-0.012262
-0.0144131
-0.016619
-0.0187811
-0.0208116
-0.0226384
-0.0242083
-0.0254856
-0.0264501
-0.0270931
-0.0274047
-0.0273614
-0.027087
0.000996234
0.000760528
0.000396626
-7.31884e-05
-0.0006295
-0.00125864
-0.00195299
-0.00270891
-0.00352425
-0.00439632
-0.00532028
-0.00628796
-0.00728694
-0.00829992
-0.00930438
-0.0102726
-0.0111722
-0.0119673
-0.0126202
-0.0130943
-0.0133572
-0.0133847
-0.0131646
-0.0127004
-0.0120142
-0.0111488
-0.0101654
-0.009143
-0.00817247
-0.00735042
-0.00677069
-0.00651546
-0.00664665
-0.00719884
-0.00817483
-0.00954459
-0.011248
-0.0132008
-0.0153038
-0.0174526
-0.0195478
-0.0215031
-0.0232501
-0.0247411
-0.0259477
-0.0268573
-0.0274664
-0.0277629
-0.0277069
-0.0274137
0.00176169
0.00139726
0.000938887
0.000432128
-0.00012635
-0.000738176
-0.00140627
-0.00213575
-0.00293178
-0.00379768
-0.00473369
-0.00573586
-0.00679512
-0.00789644
-0.00901823
-0.010132
-0.0112029
-0.0121903
-0.0130505
-0.013739
-0.014215
-0.0144454
-0.0144092
-0.0141022
-0.0135402
-0.0127627
-0.0118292
-0.0108192
-0.00982664
-0.00895342
-0.00830043
-0.00795805
-0.00799664
-0.00845857
-0.0093528
-0.0106531
-0.0123004
-0.0142091
-0.0162763
-0.0183931
-0.0204559
-0.0223755
-0.0240834
-0.0255341
-0.0267035
-0.0275845
-0.0281786
-0.0284756
-0.0284327
-0.0281574
0.00263346
0.00211511
0.00153907
0.000977343
0.000398503
-0.000217255
-0.000884872
-0.0016193
-0.00243383
-0.00333854
-0.00433926
-0.0054365
-0.00662438
-0.00788942
-0.00920957
-0.0105537
-0.0118818
-0.0131463
-0.014294
-0.0152704
-0.0160232
-0.0165081
-0.016694
-0.0165671
-0.0161357
-0.0154354
-0.0145237
-0.0134805
-0.012404
-0.0114028
-0.0105875
-0.0100605
-0.00990502
-0.0101764
-0.0108952
-0.0120438
-0.0135684
-0.0153845
-0.0173866
-0.0194607
-0.0214966
-0.0233989
-0.0250946
-0.0265364
-0.0277014
-0.0285848
-0.0291919
-0.0295169
-0.0295222
-0.0293042
0.00352661
0.0028379
0.00212963
0.00150049
0.000885518
0.000243808
-0.000453072
-0.00123078
-0.00211135
-0.00311202
-0.00424444
-0.00551353
-0.00691607
-0.00843906
-0.0100584
-0.0117381
-0.0134307
-0.0150785
-0.0166166
-0.0179771
-0.0190941
-0.0199099
-0.0203804
-0.0204802
-0.0202075
-0.0195915
-0.0186862
-0.0175708
-0.0163467
-0.0151302
-0.0140439
-0.0132056
-0.0127172
-0.0126534
-0.0130537
-0.0139168
-0.0152007
-0.0168274
-0.0186922
-0.0206768
-0.0226631
-0.0245465
-0.026245
-0.0277043
-0.0288974
-0.0298185
-0.0304734
-0.03086
-0.0309491
-0.0308224
0.00434559
0.00347765
0.00262938
0.00192418
0.00125812
0.000566377
-0.000194366
-0.00106123
-0.00206542
-0.0032316
-0.00457724
-0.00611139
-0.00783272
-0.00972741
-0.0117675
-0.0139099
-0.0160972
-0.018259
-0.020316
-0.0221844
-0.0237819
-0.0250342
-0.0258813
-0.026283
-0.0262237
-0.025722
-0.0248249
-0.0236081
-0.0221745
-0.0206474
-0.0191628
-0.0178576
-0.0168579
-0.016266
-0.0161497
-0.0165344
-0.0174
-0.0186835
-0.020287
-0.0220913
-0.0239706
-0.0258081
-0.027508
-0.0290028
-0.0302546
-0.0312503
-0.0319917
-0.0324767
-0.0326839
-0.0326759
0.00498438
0.00393488
0.00294406
0.00215623
0.00142341
0.000654351
-0.000210359
-0.00121998
-0.0024153
-0.00382854
-0.00548294
-0.00739119
-0.0095529
-0.011952
-0.0145549
-0.0173093
-0.0201453
-0.0229777
-0.0257098
-0.0282393
-0.0304643
-0.0322906
-0.0336386
-0.0344489
-0.0346876
-0.0343573
-0.0334929
-0.0321626
-0.030467
-0.0285346
-0.0265143
-0.0245647
-0.0228414
-0.0214828
-0.0205961
-0.0202464
-0.020449
-0.0211687
-0.0223249
-0.0238036
-0.0254737
-0.0272044
-0.0288809
-0.0304151
-0.0317498
-0.0328558
-0.0337234
-0.034345
-0.0347025
-0.0348361
0.00532824
0.00410065
0.00296861
0.00209206
0.00127474
0.000397041
-0.000617589
-0.00183116
-0.00329437
-0.00504719
-0.00711852
-0.00952411
-0.0122635
-0.0153171
-0.0186436
-0.0221797
-0.0258407
-0.0295239
-0.033113
-0.0364839
-0.0395119
-0.0420789
-0.0440817
-0.0454371
-0.0460881
-0.046015
-0.0452359
-0.0438051
-0.0418159
-0.039398
-0.0367106
-0.0339341
-0.0312566
-0.0288596
-0.0269014
-0.0255012
-0.0247271
-0.0245891
-0.025039
-0.0259801
-0.0272819
-0.0287999
-0.0303956
-0.0319516
-0.033381
-0.0346274
-0.0356593
-0.0364554
-0.0369941
-0.0372891
0.00525699
0.00385996
0.00259084
0.00161881
0.000696316
-0.000325789
-0.00154192
-0.00302736
-0.00484313
-0.00703712
-0.00964373
-0.0126812
-0.0161481
-0.0200195
-0.024245
-0.028748
-0.0334269
-0.0381588
-0.0428049
-0.0472161
-0.0512414
-0.0547354
-0.0575668
-0.0596252
-0.0608261
-0.0611226
-0.0605108
-0.0590243
-0.0567435
-0.0537926
-0.0503357
-0.0465707
-0.0427175
-0.0390039
-0.0356477
-0.0328371
-0.0307118
-0.0293488
-0.0287547
-0.0288683
-0.0295721
-0.0307131
-0.0321258
-0.033655
-0.0351712
-0.0365775
-0.037807
-0.0388134
-0.0395637
-0.0400396
0.00464974
0.00309664
0.00169657
0.000620853
-0.000430732
-0.00163714
-0.00311105
-0.00494148
-0.00720013
-0.00994299
-0.0132098
-0.0170206
-0.0213717
-0.0262317
-0.0315388
-0.0372009
-0.0430968
-0.0490809
-0.0549881
-0.0606416
-0.0658607
-0.0704695
-0.0743062
-0.0772306
-0.0791287
-0.0799234
-0.079586
-0.0781228
-0.0755952
-0.0721141
-0.0678398
-0.0629785
-0.057775
-0.0525
-0.0474333
-0.0428418
-0.038955
-0.0359414
-0.0338904
-0.0328033
-0.0325976
-0.0331242
-0.0341932
-0.035604
-0.0371708
-0.0387393
-0.0401909
-0.0414402
-0.0424325
-0.0431103
0.00339086
0.00169926
0.000175882
-0.00101341
-0.00222091
-0.0036547
-0.00544581
-0.00769721
-0.0104916
-0.0138931
-0.0179464
-0.0226728
-0.0280648
-0.0340824
-0.0406504
-0.0476582
-0.0549619
-0.0623894
-0.0697467
-0.0768257
-0.0834139
-0.0893035
-0.0943013
-0.0982374
-0.100969
-0.102391
-0.102446
-0.101113
-0.0984285
-0.0944813
-0.0894171
-0.0834376
-0.0767977
-0.0697992
-0.0627763
-0.0560753
-0.0500268
-0.0449134
-0.0409384
-0.0382016
-0.0366888
-0.0362793
-0.0367706
-0.0379146
-0.0394567
-0.0411656
-0.042851
-0.0443707
-0.0456355
-0.0465398
0.00137674
-0.000432028
-0.00206987
-0.00338405
-0.00477628
-0.00648217
-0.00865068
-0.0113988
-0.0148203
-0.0189873
-0.023949
-0.0297262
-0.0363063
-0.043638
-0.0516296
-0.0601483
-0.0690239
-0.0780541
-0.0870123
-0.0956572
-0.103743
-0.111031
-0.1173
-0.122351
-0.12602
-0.128172
-0.128732
-0.12765
-0.124933
-0.120643
-0.114901
-0.107887
-0.0998474
-0.091093
-0.0819932
-0.0729607
-0.0644252
-0.0567966
-0.0504208
-0.0455365
-0.0422429
-0.0404879
-0.0400828
-0.0407415
-0.042132
-0.0439269
-0.0458397
-0.0476501
-0.0492185
-0.050378
-0.0014773
-0.00337864
-0.00512091
-0.00657199
-0.00817833
-0.0102005
-0.0128046
-0.0161213
-0.0202552
-0.0252859
-0.0312658
-0.0382139
-0.0461093
-0.0548867
-0.0644334
-0.0745906
-0.0851572
-0.0958969
-0.106548
-0.116834
-0.126479
-0.135214
-0.142793
-0.149001
-0.153652
-0.156597
-0.157744
-0.157024
-0.154414
-0.14995
-0.143715
-0.135856
-0.126588
-0.116205
-0.105079
-0.0936618
-0.0824617
-0.0720115
-0.0628158
-0.0552894
-0.0496969
-0.046111
-0.0444037
-0.0442771
-0.0453255
-0.047109
-0.0492189
-0.0513302
-0.0532329
-0.0546801
-0.00523058
-0.00719709
-0.00903234
-0.010632
-0.0124805
-0.0148602
-0.0179528
-0.021902
-0.0268224
-0.0328002
-0.039889
-0.0481034
-0.0574114
-0.0677289
-0.0789183
-0.0907894
-0.103106
-0.115594
-0.127955
-0.13988
-0.151062
-0.16121
-0.170063
-0.177392
-0.183006
-0.186747
-0.188516
-0.188238
-0.185866
-0.181408
-0.174911
-0.166477
-0.156272
-0.144543
-0.131631
-0.117984
-0.10415
-0.0907573
-0.0784618
-0.0678761
-0.059479
-0.0535348
-0.0500439
-0.0487478
-0.0491897
-0.0508116
-0.053057
-0.055465
-0.0577308
-0.0595013
-0.00991168
-0.0119136
-0.0138286
-0.0155867
-0.0177022
-0.0204748
-0.0241003
-0.0287339
-0.0344989
-0.0414861
-0.0497484
-0.0592926
-0.0700712
-0.081977
-0.0948421
-0.108441
-0.122497
-0.136698
-0.150708
-0.164186
-0.176802
-0.188251
-0.198261
-0.206605
-0.213094
-0.217575
-0.219948
-0.220146
-0.218107
-0.213819
-0.207296
-0.198592
-0.187814
-0.17514
-0.160848
-0.145334
-0.129134
-0.112917
-0.097458
-0.0835578
-0.0719404
-0.0631264
-0.0573279
-0.0544041
-0.0538979
-0.0551463
-0.057426
-0.0601074
-0.0627603
-0.0648915
-0.0155146
-0.0175203
-0.0194998
-0.0214231
-0.0238248
-0.0270174
-0.0312083
-0.0365623
-0.0432095
-0.0512428
-0.0607115
-0.0716105
-0.0838726
-0.0973628
-0.111878
-0.127153
-0.14287
-0.158676
-0.1742
-0.189075
-0.202954
-0.215523
-0.226515
-0.235709
-0.242932
-0.248045
-0.250953
-0.251612
-0.249955
-0.245958
-0.23961
-0.230926
-0.219951
-0.206787
-0.191623
-0.174766
-0.156681
-0.138014
-0.119589
-0.102355
-0.0872764
-0.0751739
-0.0665568
-0.061502
-0.0596358
-0.0602325
-0.062399
-0.0653054
-0.0683605
-0.0708896
-0.0219972
-0.0239736
-0.0259997
-0.0280902
-0.0307899
-0.034419
-0.0391933
-0.0452849
-0.052828
-0.0619149
-0.0725874
-0.0848251
-0.0985364
-0.113554
-0.129637
-0.146476
-0.163713
-0.180955
-0.197803
-0.213866
-0.228789
-0.24226
-0.254021
-0.26387
-0.271654
-0.277258
-0.280599
-0.281661
-0.280383
-0.276741
-0.27071
-0.262275
-0.251433
-0.238213
-0.222706
-0.205107
-0.185764
-0.165231
-0.144301
-0.12399
-0.105454
-0.0898196
-0.0779581
-0.0702729
-0.0665873
-0.0661914
-0.0680456
-0.0710978
-0.0745574
-0.0775184
-0.0292815
-0.0311948
-0.0332466
-0.0355007
-0.038501
-0.0425703
-0.0479296
-0.0547551
-0.0631822
-0.0732992
-0.085137
-0.0986559
-0.113737
-0.130177
-0.147693
-0.165936
-0.184505
-0.202975
-0.220918
-0.237934
-0.253663
-0.267803
-0.280113
-0.290415
-0.298582
-0.304525
-0.308181
-0.309561
-0.308621
-0.305341
-0.299699
-0.291662
-0.281195
-0.268269
-0.252889
-0.235133
-0.215207
-0.193519
-0.170748
-0.147879
-0.126169
-0.107001
-0.0916321
-0.0808849
-0.0749113
-0.073134
-0.0744259
-0.0775096
-0.081359
-0.0847792
-0.0372565
-0.0390729
-0.0411265
-0.0435335
-0.0468267
-0.0513262
-0.0572547
-0.0647888
-0.0740617
-0.0851549
-0.0980849
-0.11279
-0.12912
-0.146837
-0.165616
-0.185067
-0.204753
-0.224219
-0.24302
-0.260749
-0.277051
-0.29164
-0.304296
-0.314866
-0.323252
-0.329393
-0.33325
-0.334853
-0.334182
-0.331232
-0.325986
-0.318411
-0.308457
-0.29606
-0.281161
-0.263735
-0.243847
-0.221734
-0.197896
-0.173187
-0.148846
-0.126418
-0.107504
-0.0934004
-0.0847139
-0.0811455
-0.081581
-0.0845451
-0.0887491
-0.0926462
-0.0457831
-0.0474696
-0.0494982
-0.05204
-0.0556074
-0.0605129
-0.0669767
-0.0751728
-0.0852289
-0.0972163
-0.111135
-0.126899
-0.144328
-0.163146
-0.182991
-0.203436
-0.224012
-0.244243
-0.263673
-0.281893
-0.298561
-0.313409
-0.326239
-0.336926
-0.345399
-0.35162
-0.355579
-0.357315
-0.356839
-0.354157
-0.349269
-0.342151
-0.332754
-0.321002
-0.306797
-0.290042
-0.270686
-0.248794
-0.224657
-0.198923
-0.172692
-0.147532
-0.125296
-0.107739
-0.0960166
-0.0902645
-0.0895217
-0.0921803
-0.0966809
-0.101061
-0.0547008
-0.0562259
-0.0582002
-0.0608512
-0.064663
-0.069936
-0.0768846
-0.0856763
-0.0964303
-0.109206
-0.123984
-0.140656
-0.15901
-0.178737
-0.199441
-0.220662
-0.241908
-0.262688
-0.282541
-0.301063
-0.317927
-0.332883
-0.345759
-0.356452
-0.364914
-0.371131
-0.375111
-0.376908
-0.376555
-0.374072
-0.369476
-0.362762
-0.353894
-0.342799
-0.329372
-0.313476
-0.294977
-0.273799
-0.250031
-0.224069
-0.196783
-0.169618
-0.14453
-0.123655
-0.108729
-0.100462
-0.0982151
-0.100355
-0.105071
-0.109927
-0.0638352
-0.0651703
-0.067059
-0.0697864
-0.073802
-0.0793907
-0.0867576
-0.0960609
-0.107409
-0.120847
-0.136338
-0.153749
-0.172842
-0.193279
-0.214633
-0.236423
-0.258138
-0.279276
-0.29938
-0.318054
-0.334985
-0.349944
-0.362778
-0.373405
-0.381795
-0.387953
-0.391903
-0.393706
-0.393415
-0.391063
-0.386685
-0.380296
-0.371881
-0.361387
-0.348719
-0.333732
-0.31625
-0.296099
-0.273197
-0.247694
-0.22017
-0.191827
-0.164559
-0.140734
-0.12263
-0.111624
-0.107571
-0.108963
-0.113792
-0.119104
-0.0730067
-0.0741266
-0.0758977
-0.0786622
-0.082831
-0.0886713
-0.0963765
-0.106093
-0.117915
-0.131876
-0.147919
-0.165893
-0.185535
-0.206483
-0.228292
-0.250459
-0.272465
-0.293805
-0.314023
-0.332738
-0.349649
-0.364544
-0.377287
-0.387812
-0.396102
-0.402174
-0.406064
-0.407837
-0.407563
-0.405283
-0.401051
-0.394901
-0.386842
-0.37685
-0.364853
-0.350725
-0.33428
-0.315295
-0.293567
-0.269035
-0.241982
-0.213288
-0.184625
-0.158418
-0.137364
-0.123534
-0.117432
-0.117847
-0.12267
-0.128402
-0.0820386
-0.0829232
-0.0845446
-0.0873016
-0.0915645
-0.0975815
-0.105533
-0.11555
-0.127717
-0.14205
-0.158479
-0.176835
-0.196839
-0.218111
-0.240191
-0.262567
-0.284715
-0.30613
-0.326365
-0.345045
-0.361884
-0.376683
-0.389318
-0.399733
-0.407918
-0.4139
-0.41772
-0.419444
-0.419156
-0.416903
-0.412753
-0.406759
-0.398956
-0.389348
-0.377899
-0.364514
-0.349028
-0.331208
-0.310783
-0.28754
-0.261496
-0.23318
-0.203933
-0.176042
-0.152454
-0.135875
-0.127562
-0.12679
-0.131479
-0.137585
-0.0907654
-0.0914
-0.0928413
-0.0955421
-0.0998324
-0.105942
-0.114037
-0.124235
-0.136607
-0.151156
-0.167802
-0.186362
-0.206546
-0.227967
-0.250155
-0.272596
-0.294763
-0.316159
-0.33634
-0.354942
-0.371687
-0.386385
-0.398918
-0.409236
-0.417331
-0.423234
-0.426988
-0.428659
-0.428339
-0.426078
-0.421957
-0.416047
-0.408405
-0.399066
-0.38803
-0.375242
-0.360576
-0.343819
-0.324684
-0.302862
-0.278169
-0.250805
-0.221714
-0.192893
-0.167328
-0.148231
-0.137651
-0.135516
-0.13994
-0.146366
-0.0990396
-0.0994157
-0.100649
-0.103243
-0.107488
-0.113598
-0.121725
-0.131976
-0.144408
-0.159014
-0.175707
-0.194297
-0.214492
-0.2359
-0.258051
-0.280433
-0.302524
-0.32383
-0.343915
-0.362419
-0.379071
-0.393682
-0.406137
-0.416385
-0.424418
-0.430265
-0.433969
-0.43559
-0.43523
-0.432939
-0.428807
-0.42292
-0.415355
-0.406177
-0.395421
-0.383076
-0.369063
-0.35321
-0.335248
-0.314833
-0.291645
-0.265614
-0.237288
-0.208259
-0.181355
-0.160106
-0.147313
-0.143689
-0.147722
-0.15441
-0.106738
-0.106854
-0.107855
-0.110289
-0.114412
-0.120424
-0.128466
-0.138634
-0.150976
-0.165479
-0.182052
-0.200507
-0.220551
-0.241799
-0.263786
-0.286006
-0.307944
-0.329111
-0.349075
-0.367481
-0.384054
-0.398606
-0.411019
-0.421234
-0.429241
-0.435062
-0.438738
-0.440323
-0.439924
-0.437589
-0.433416
-0.427502
-0.419945
-0.410833
-0.400236
-0.388186
-0.374652
-0.359516
-0.342549
-0.323417
-0.301731
-0.277226
-0.250094
-0.221481
-0.193887
-0.170946
-0.156096
-0.150914
-0.154445
-0.161337
-0.113762
-0.113626
-0.114377
-0.116598
-0.120519
-0.126328
-0.13416
-0.144104
-0.156202
-0.170441
-0.18673
-0.204888
-0.224633
-0.245586
-0.267297
-0.289267
-0.310991
-0.331985
-0.351819
-0.370135
-0.386656
-0.401186
-0.413597
-0.423824
-0.431845
-0.437676
-0.441352
-0.442921
-0.442487
-0.440104
-0.435869
-0.429893
-0.422286
-0.413161
-0.402618
-0.390726
-0.377505
-0.362891
-0.346712
-0.328668
-0.308361
-0.285404
-0.25971
-0.231985
-0.204296
-0.180165
-0.163499
-0.156747
-0.159684
-0.166726
-0.120045
-0.119671
-0.12016
-0.12212
-0.125756
-0.131252
-0.138744
-0.148319
-0.160018
-0.173832
-0.189678
-0.207388
-0.226692
-0.24723
-0.268565
-0.290213
-0.311676
-0.332474
-0.352178
-0.370423
-0.386925
-0.401472
-0.413928
-0.42421
-0.432288
-0.438164
-0.441866
-0.443438
-0.442975
-0.440542
-0.436235
-0.430169
-0.42247
-0.413267
-0.402686
-0.390834
-0.377773
-0.363493
-0.347882
-0.330696
-0.31156
-0.290036
-0.265844
-0.239305
-0.212001
-0.18717
-0.16898
-0.160699
-0.162969
-0.170116
-0.125549
-0.124959
-0.125183
-0.126837
-0.130105
-0.135173
-0.142186
-0.151237
-0.162376
-0.175602
-0.190849
-0.207962
-0.226694
-0.246704
-0.267574
-0.288834
-0.309995
-0.330581
-0.350159
-0.368356
-0.384873
-0.399484
-0.412034
-0.422425
-0.43061
-0.436577
-0.440346
-0.441954
-0.44148
-0.439001
-0.434607
-0.428423
-0.420587
-0.411247
-0.400552
-0.388636
-0.375598
-0.361477
-0.346218
-0.329639
-0.311415
-0.291107
-0.268322
-0.243081
-0.216492
-0.191382
-0.171975
-0.162239
-0.163786
-0.171006
-0.130264
-0.129488
-0.12945
-0.130759
-0.133577
-0.1381
-0.144488
-0.152854
-0.163266
-0.175741
-0.190231
-0.206606
-0.224642
-0.24402
-0.264344
-0.285159
-0.305984
-0.326347
-0.345806
-0.363978
-0.380547
-0.395266
-0.407959
-0.418509
-0.426849
-0.432952
-0.436825
-0.438499
-0.438039
-0.43553
-0.431057
-0.424751
-0.416758
-0.407236
-0.396352
-0.384268
-0.371122
-0.356996
-0.341882
-0.325656
-0.308052
-0.288669
-0.267065
-0.243057
-0.217335
-0.192252
-0.171902
-0.160797
-0.161577
-0.168851
-0.13421
-0.133283
-0.132997
-0.133924
-0.136213
-0.140068
-0.145681
-0.153195
-0.162707
-0.174265
-0.187845
-0.203346
-0.220569
-0.239222
-0.258929
-0.27925
-0.299713
-0.319845
-0.339197
-0.357369
-0.374025
-0.388897
-0.401782
-0.412541
-0.421086
-0.427372
-0.431392
-0.433166
-0.432747
-0.430228
-0.425683
-0.41925
-0.411081
-0.401344
-0.390223
-0.377898
-0.364526
-0.350226
-0.335044
-0.318913
-0.301621
-0.282817
-0.262065
-0.239063
-0.21417
-0.189264
-0.168165
-0.15576
-0.155727
-0.163048
-0.137428
-0.136395
-0.135879
-0.136396
-0.138074
-0.141137
-0.145815
-0.152301
-0.160738
-0.171209
-0.18373
-0.198227
-0.214531
-0.232376
-0.251405
-0.271193
-0.291274
-0.311172
-0.330429
-0.348627
-0.365407
-0.380474
-0.393601
-0.404622
-0.413423
-0.419943
-0.424156
-0.426073
-0.42573
-0.423224
-0.418626
-0.412069
-0.403714
-0.393736
-0.382327
-0.369684
-0.355984
-0.341371
-0.325916
-0.309603
-0.292289
-0.273677
-0.253361
-0.23099
-0.206697
-0.181929
-0.160151
-0.146459
-0.145547
-0.152917
-0.139983
-0.138895
-0.138175
-0.138254
-0.139239
-0.141377
-0.144955
-0.15023
-0.157409
-0.166627
-0.177942
-0.191315
-0.206607
-0.223573
-0.241876
-0.261102
-0.28079
-0.300458
-0.319636
-0.337887
-0.354827
-0.370134
-0.383552
-0.394885
-0.403998
-0.410805
-0.415263
-0.417368
-0.417148
-0.414687
-0.41006
-0.403396
-0.394854
-0.384615
-0.372878
-0.359845
-0.345711
-0.330634
-0.314711
-0.297949
-0.280251
-0.261391
-0.241018
-0.218773
-0.194657
-0.169776
-0.147214
-0.132147
-0.130244
-0.137666
-0.141957
-0.140872
-0.139979
-0.139591
-0.139794
-0.140867
-0.143169
-0.147045
-0.152782
-0.160583
-0.170555
-0.182698
-0.196898
-0.212933
-0.230479
-0.24913
-0.268424
-0.287874
-0.306994
-0.325328
-0.342466
-0.358056
-0.371813
-0.383513
-0.392993
-0.400142
-0.404901
-0.407248
-0.407201
-0.404827
-0.400209
-0.393461
-0.384742
-0.374234
-0.362134
-0.348647
-0.333972
-0.318274
-0.301665
-0.284172
-0.265719
-0.246122
-0.225107
-0.202355
-0.177804
-0.152325
-0.128654
-0.111966
-0.108882
-0.116336
-0.143453
-0.142437
-0.141403
-0.140511
-0.139828
-0.139682
-0.140523
-0.142807
-0.146921
-0.15315
-0.161657
-0.172482
-0.185534
-0.200608
-0.217386
-0.235466
-0.254382
-0.273637
-0.292729
-0.31118
-0.328555
-0.344473
-0.358618
-0.370737
-0.380639
-0.388191
-0.39331
-0.395959
-0.396142
-0.393906
-0.389342
-0.382545
-0.37367
-0.362892
-0.350401
-0.336398
-0.321073
-0.30459
-0.28706
-0.268517
-0.248897
-0.228034
-0.205698
-0.18166
-0.155865
-0.12905
-0.103676
-0.0848992
-0.0803191
-0.0877258
-0.144589
-0.143718
-0.142573
-0.141119
-0.139423
-0.137884
-0.137069
-0.137567
-0.139887
-0.144407
-0.151352
-0.160797
-0.172675
-0.186784
-0.20281
-0.220346
-0.238917
-0.258013
-0.277116
-0.295725
-0.31338
-0.329671
-0.344252
-0.356843
-0.367225
-0.375239
-0.380781
-0.383795
-0.384271
-0.382237
-0.377776
-0.370975
-0.361972
-0.35093
-0.338027
-0.323445
-0.307359
-0.289914
-0.271205
-0.251255
-0.229994
-0.207263
-0.18284
-0.156568
-0.128501
-0.099332
-0.0713413
-0.0496975
-0.0431063
-0.0502655
-0.145518
-0.144876
-0.143634
-0.141524
-0.138649
-0.135513
-0.132836
-0.131362
-0.131738
-0.134441
-0.13976
-0.147803
-0.158513
-0.171689
-0.187008
-0.204052
-0.222332
-0.241323
-0.260486
-0.279301
-0.297281
-0.313991
-0.329058
-0.342172
-0.353088
-0.361623
-0.36765
-0.371095
-0.37193
-0.370166
-0.365865
-0.359111
-0.350014
-0.33872
-0.325384
-0.310161
-0.293193
-0.274594
-0.254422
-0.232665
-0.209224
-0.183919
-0.156529
-0.126908
-0.0952655
-0.0624132
-0.0305103
-0.00479062
0.00465388
-0.00182226
-0.146447
-0.14612
-0.144762
-0.141839
-0.137557
-0.132586
-0.12783
-0.124213
-0.122528
-0.123351
-0.127028
-0.133692
-0.143286
-0.155598
-0.170288
-0.186919
-0.204984
-0.223938
-0.243223
-0.262297
-0.280652
-0.297827
-0.313425
-0.327109
-0.338611
-0.347722
-0.354295
-0.358233
-0.359491
-0.358063
-0.353984
-0.347325
-0.33817
-0.326636
-0.312844
-0.296911
-0.278933
-0.258969
-0.237021
-0.213013
-0.186783
-0.158096
-0.126696
-0.092445
-0.0556269
-0.017354
0.0201724
0.0517117
0.0653891
0.0604994
-0.147694
-0.147748
-0.146188
-0.142188
-0.136185
-0.129093
-0.122038
-0.116137
-0.112323
-0.111261
-0.113341
-0.118705
-0.127284
-0.138843
-0.153016
-0.169339
-0.187283
-0.206282
-0.225759
-0.245152
-0.26393
-0.281614
-0.297783
-0.312078
-0.324207
-0.333941
-0.341108
-0.345594
-0.347331
-0.346293
-0.342492
-0.335969
-0.326785
-0.315016
-0.300741
-0.284023
-0.264895
-0.243341
-0.219277
-0.192531
-0.162835
-0.12985
-0.0932364
-0.0528237
-0.00893869
0.0370181
0.0823641
0.121976
0.142002
0.140395
-0.149816
-0.150237
-0.148239
-0.142732
-0.134575
-0.125021
-0.115452
-0.107167
-0.10122
-0.0983429
-0.0989421
-0.103147
-0.110863
-0.121819
-0.135615
-0.151758
-0.169691
-0.188827
-0.208568
-0.228336
-0.247583
-0.265811
-0.28258
-0.297512
-0.310295
-0.320678
-0.328471
-0.333537
-0.335789
-0.335177
-0.331688
-0.325331
-0.316131
-0.304118
-0.28932
-0.271734
-0.25131
-0.227933
-0.201401
-0.171401
-0.137511
-0.099223
-0.0560405
-0.00768512
0.0455237
0.102057
0.15827
0.208769
0.238291
0.242739
-0.153873
-0.154408
-0.151437
-0.143723
-0.132816
-0.120394
-0.108103
-0.0973965
-0.0893927
-0.0848477
-0.0841539
-0.0874021
-0.0944517
-0.104988
-0.118571
-0.134672
-0.152707
-0.172068
-0.192141
-0.21233
-0.232075
-0.250865
-0.268242
-0.283814
-0.29725
-0.308282
-0.316701
-0.322351
-0.325122
-0.324941
-0.321768
-0.315578
-0.306355
-0.294076
-0.278705
-0.260162
-0.238298
-0.212871
-0.183527
-0.149766
-0.110947
-0.0663136
-0.0151136
0.0431574
0.108314
0.178784
0.250364
0.316041
0.360521
0.375954
-0.161994
-0.161765
-0.156668
-0.145613
-0.13114
-0.115367
-0.100155
-0.0870443
-0.0771384
-0.0711453
-0.0694074
-0.0719456
-0.0785561
-0.0888707
-0.102405
-0.118596
-0.136834
-0.156492
-0.17694
-0.197573
-0.21782
-0.237157
-0.255118
-0.271296
-0.285348
-0.296991
-0.305998
-0.312194
-0.31545
-0.315669
-0.31278
-0.306727
-0.29745
-0.284872
-0.268877
-0.249296
-0.225867
-0.198201
-0.165753
-0.12779
-0.0833821
-0.031431
0.0291997
0.0994043
0.179324
0.267562
0.359878
0.447927
0.516615
0.553458
-0.178433
-0.175113
-0.165483
-0.149247
-0.130076
-0.110357
-0.0920119
-0.0765432
-0.0649333
-0.0577541
-0.0552475
-0.0573322
-0.0637254
-0.0739993
-0.0876245
-0.104006
-0.122513
-0.142499
-0.163329
-0.184386
-0.205095
-0.224925
-0.243403
-0.260113
-0.274702
-0.286874
-0.296391
-0.30306
-0.306732
-0.307288
-0.30463
-0.298666
-0.289293
-0.276376
-0.259721
-0.239056
-0.213994
-0.183981
-0.148259
-0.105819
-0.0553754
0.00461465
0.0758368
0.159822
0.257363
0.367558
0.486395
0.606002
0.707809
0.77983
-0.211349
-0.199545
-0.180381
-0.155869
-0.130395
-0.105984
-0.0842545
-0.0664622
-0.053345
-0.045254
-0.04224
-0.0440957
-0.0504499
-0.0608127
-0.0746129
-0.0912282
-0.11001
-0.130304
-0.151467
-0.172881
-0.193967
-0.214194
-0.233084
-0.250218
-0.265236
-0.277833
-0.287758
-0.294808
-0.298816
-0.299642
-0.29716
-0.291245
-0.28175
-0.268483
-0.251176
-0.229452
-0.202795
-0.170486
-0.131543
-0.0846631
-0.0281645
0.0400337
0.122356
0.221344
0.339102
0.476207
0.629784
0.791372
0.93063
1.03508
-0.280271
-0.243428
-0.202846
-0.164848
-0.131107
-0.101385
-0.0763109
-0.0565433
-0.0423513
-0.0337328
-0.0305175
-0.0323741
-0.0388465
-0.0493917
-0.0634076
-0.0802555
-0.0992785
-0.11982
-0.141237
-0.162916
-0.184278
-0.204796
-0.223992
-0.241444
-0.256789
-0.269718
-0.27997
-0.28733
-0.291618
-0.292674
-0.29035
-0.284487
-0.2749
-0.261345
-0.243485
-0.220857
-0.192832
-0.158542
-0.116808
-0.0660559
-0.00422963
0.0713046
0.163824
0.277245
0.415937
0.584131
0.784044
1.00989
1.21714
1.36925
-0.458009
-0.313118
-0.218547
-0.164614
-0.124205
-0.0903221
-0.0635312
-0.0434945
-0.0294995
-0.0212281
-0.0184419
-0.020749
-0.0276449
-0.0385709
-0.0529272
-0.070082
-0.0893875
-0.110196
-0.131876
-0.15382
-0.175458
-0.196266
-0.215768
-0.233544
-0.249227
-0.262503
-0.273105
-0.28081
-0.285422
-0.28677
-0.284686
-0.278988
-0.269458
-0.255814
-0.23768
-0.214537
-0.185678
-0.150136
-0.106603
-0.05333
0.011998
0.0924243
0.191936
0.315786
0.471004
0.667295
0.918077
1.23959
1.62916
2.07738
-0.913082
-0.400339
-0.194423
-0.145765
-0.108163
-0.0713187
-0.0445476
-0.0263686
-0.0140589
-0.00704294
-0.00527524
-0.00842664
-0.0160051
-0.0274845
-0.0423044
-0.0598644
-0.0795398
-0.100702
-0.122733
-0.145036
-0.167048
-0.188248
-0.208163
-0.226371
-0.242502
-0.256236
-0.267302
-0.275467
-0.280529
-0.282306
-0.280618
-0.275272
-0.266039
-0.252624
-0.23463
-0.211516
-0.18255
-0.146734
-0.102722
-0.0487132
0.0176905
0.0996842
0.20157
0.329308
0.491606
0.702385
0.986701
1.39868
2.06764
3.21982
)
;

boundaryField
{
    movingWall
    {
        type            zeroGradient;
    }
    fixedWalls
    {
        type            zeroGradient;
    }
    frontAndBack
    {
        type            empty;
    }
}


// ************************************************************************* //
