/*--------------------------------*- C++ -*----------------------------------*\
  =========                 |
  \\      /  F ield         | OpenFOAM: The Open Source CFD Toolbox
   \\    /   O peration     | Website:  https://openfoam.org
    \\  /    A nd           | Version:  7
     \\/     M anipulation  |
\*---------------------------------------------------------------------------*/
FoamFile
{
    version     2.0;
    format      ascii;
    class       surfaceScalarField;
    location    "450";
    object      phi;
}
// * * * * * * * * * * * * * * * * * * * * * * * * * * * * * * * * * * * * * //

dimensions      [0 3 -1 0 0 0 0];

internalField   nonuniform List<scalar> 
4900
(
5.41241e-07
-5.45471e-07
1.32302e-06
-7.81798e-07
1.85538e-06
-5.32378e-07
1.92491e-06
-6.95353e-08
1.47789e-06
4.47007e-07
5.29643e-07
9.48228e-07
-8.82997e-07
1.41263e-06
-2.72515e-06
1.84214e-06
-4.97234e-06
2.24718e-06
-7.61034e-06
2.63798e-06
-1.06305e-05
3.02017e-06
-1.40237e-05
3.39314e-06
-1.77737e-05
3.74997e-06
-2.18518e-05
4.07814e-06
-2.62124e-05
4.36062e-06
-3.07895e-05
4.57706e-06
-3.54947e-05
4.70516e-06
-4.02167e-05
4.72204e-06
-4.48227e-05
4.60591e-06
-4.91605e-05
4.33782e-06
-5.30642e-05
3.90364e-06
-5.63601e-05
3.29598e-06
-5.88763e-05
2.51613e-06
-6.04519e-05
1.57558e-06
-6.09491e-05
4.97218e-07
-6.02647e-05
-6.84456e-07
-5.834e-05
-1.92473e-06
-5.51705e-05
-3.16944e-06
-5.08123e-05
-4.35825e-06
-4.53839e-05
-5.42841e-06
-3.90647e-05
-6.31926e-06
-3.20874e-05
-6.97725e-06
-2.47267e-05
-7.36078e-06
-1.72822e-05
-7.44447e-06
-1.00601e-05
-7.22213e-06
-3.35222e-06
-6.70789e-06
2.58325e-06
-5.93548e-06
7.53872e-06
-4.95548e-06
1.13686e-05
-3.82986e-06
1.39949e-05
-2.62636e-06
1.5408e-05
-1.41309e-06
1.56612e-05
-2.53153e-07
1.48628e-05
7.98379e-07
1.31684e-05
1.69437e-06
1.07786e-05
2.38982e-06
7.94508e-06
2.83348e-06
4.9892e-06
2.95587e-06
2.33186e-06
2.65734e-06
5.14907e-07
1.81695e-06
5.14906e-07
7.89787e-07
-1.33528e-06
1.6714e-06
-1.66346e-06
1.78692e-06
-6.47933e-07
7.5188e-07
9.65473e-07
-1.56126e-06
2.76011e-06
-5.14866e-06
4.5356e-06
-9.95518e-06
6.2191e-06
-1.59178e-05
7.8047e-06
-2.29827e-05
9.31209e-06
-3.11057e-05
1.0761e-05
-4.0243e-05
1.21574e-05
-5.03384e-05
1.34885e-05
-6.13101e-05
1.47216e-05
-7.30393e-05
1.58073e-05
-8.53612e-05
1.66825e-05
-9.806e-05
1.72758e-05
-0.000110867
1.75123e-05
-0.000123464
1.73188e-05
-0.000135488
1.66301e-05
-0.000146545
1.5395e-05
-0.000156223
1.35817e-05
-0.000164111
1.1184e-05
-0.000169821
8.22559e-06
-0.000173009
4.76322e-06
-0.0001734
8.88298e-07
-0.000170811
-3.27364e-06
-0.000165166
-7.56922e-06
-0.000156514
-1.18215e-05
-0.000145032
-1.584e-05
-0.000131029
-1.94313e-05
-0.000114937
-2.24118e-05
-9.72931e-05
-2.46211e-05
-7.87189e-05
-2.59349e-05
-5.98871e-05
-2.62764e-05
-4.1485e-05
-2.56242e-05
-2.41765e-05
-2.40165e-05
-8.56238e-06
-2.15496e-05
4.85312e-06
-1.8371e-05
1.56916e-05
-1.46684e-05
2.3719e-05
-1.06538e-05
2.88523e-05
-6.54639e-06
3.11576e-05
-2.55842e-06
3.08417e-05
1.11424e-06
2.82409e-05
4.2952e-06
2.38146e-05
6.8161e-06
1.81494e-05
8.49863e-06
1.19754e-05
9.12985e-06
6.18718e-06
8.44557e-06
1.8302e-06
6.17392e-06
2.34511e-06
4.88021e-07
-1.82332e-06
4.50311e-07
-1.62579e-06
-9.65701e-07
7.68041e-07
-4.14387e-06
4.1436e-06
-9.21242e-06
7.82862e-06
-1.61672e-05
1.14903e-05
-2.49487e-05
1.50006e-05
-3.54839e-05
1.83399e-05
-4.77007e-05
2.15288e-05
-6.15248e-05
2.4585e-05
-7.68666e-05
2.74992e-05
-9.36048e-05
3.02266e-05
-0.00011157
3.26867e-05
-0.000130531
3.47685e-05
-0.000150188
3.63394e-05
-0.000170167
3.7255e-05
-0.000190026
3.73704e-05
-0.000209258
3.65514e-05
-0.000227315
3.46865e-05
-0.000243617
3.16974e-05
-0.000257586
2.755e-05
-0.000268664
2.2262e-05
-0.000276347
1.59092e-05
-0.000280212
8.62846e-06
-0.000279942
6.17689e-07
-0.000275348
-7.8672e-06
-0.000266391
-1.65262e-05
-0.000253189
-2.50243e-05
-0.000236021
-3.3008e-05
-0.000215328
-4.01237e-05
-0.000191702
-4.60383e-05
-0.000165862
-5.04613e-05
-0.000138631
-5.31654e-05
-0.000110902
-5.40059e-05
-8.3591e-05
-5.29352e-05
-5.75973e-05
-5.00103e-05
-3.37536e-05
-4.53933e-05
-1.27825e-05
-3.93422e-05
4.74308e-06
-3.21939e-05
1.84297e-05
-2.43405e-05
2.80838e-05
-1.62005e-05
3.37177e-05
-8.19241e-06
3.55476e-05
-7.15617e-07
3.39853e-05
5.85746e-06
2.96283e-05
1.11731e-05
2.3257e-05
1.487e-05
1.58374e-05
1.65494e-05
8.52899e-06
1.5754e-05
2.69365e-06
1.20093e-05
5.03875e-06
-1.6202e-07
-1.66132e-06
-1.81085e-06
2.2997e-08
-5.58252e-06
4.53967e-06
-1.17299e-05
1.02909e-05
-2.03074e-05
1.64061e-05
-3.12763e-05
2.24592e-05
-4.45629e-05
2.82871e-05
-6.00846e-05
3.38615e-05
-7.77528e-05
3.91969e-05
-9.74609e-05
4.42931e-05
-0.000119067
4.91049e-05
-0.000142372
5.35321e-05
-0.000167108
5.74223e-05
-0.000192921
6.05817e-05
-0.000219372
6.27902e-05
-0.000245936
6.38186e-05
-0.000272013
6.34474e-05
-0.000296946
6.14847e-05
-0.000320043
5.77837e-05
-0.000340604
5.2258e-05
-0.000357948
4.48942e-05
-0.000371447
3.57609e-05
-0.000380551
2.50134e-05
-0.000384817
1.28946e-05
-0.000383931
-2.68426e-07
-0.000377728
-1.40706e-05
-0.000366203
-2.80512e-05
-0.000349522
-4.17056e-05
-0.000328022
-5.45078e-05
-0.000302212
-6.59341e-05
-0.00027276
-7.54905e-05
-0.000240479
-8.27421e-05
-0.000206302
-8.73423e-05
-0.000171248
-8.90598e-05
-0.000136382
-8.78011e-05
-0.000102768
-8.36247e-05
-7.14158e-05
-7.67454e-05
-4.32323e-05
-6.75257e-05
-1.89706e-05
-5.64557e-05
8.10467e-07
-4.41215e-05
1.5778e-05
-3.1168e-05
2.58447e-05
-1.82592e-05
3.1174e-05
-6.04489e-06
3.21775e-05
4.85392e-06
2.9504e-05
1.38466e-05
2.40308e-05
2.03431e-05
1.68594e-05
2.37208e-05
9.3209e-06
2.32925e-05
3.01755e-06
1.83126e-05
8.0563e-06
-1.03602e-06
-6.25318e-07
-4.79223e-06
3.77916e-06
-1.15392e-05
1.12866e-05
-2.12965e-05
2.00482e-05
-3.39822e-05
2.90917e-05
-4.94874e-05
3.79644e-05
-6.77078e-05
4.65075e-05
-8.85443e-05
5.46979e-05
-0.000111888
6.25402e-05
-0.000137595
7.00002e-05
-0.000165464
7.69743e-05
-0.000195215
8.32832e-05
-0.000226474
8.86813e-05
-0.000258768
9.28752e-05
-0.000291526
9.5548e-05
-0.000324092
9.63845e-05
-0.000355742
9.50975e-05
-0.000385709
9.14518e-05
-0.000413211
8.52855e-05
-0.00043748
7.65272e-05
-0.000457794
6.52078e-05
-0.000473501
5.14679e-05
-0.000484047
3.55591e-05
-0.000488993
1.78407e-05
-0.000488034
-1.22681e-06
-0.000481015
-2.10897e-05
-0.000467936
-4.11307e-05
-0.000448962
-6.06798e-05
-0.00042443
-7.90399e-05
-0.00039485
-9.55141e-05
-0.000360902
-0.000109438
-0.000323427
-0.000120217
-0.000283408
-0.000127362
-0.000241942
-0.000130526
-0.000200202
-0.000129541
-0.000159391
-0.000124436
-0.000120682
-0.000115454
-8.51631e-05
-0.000103044
-5.3776e-05
-8.78428e-05
-2.72627e-05
-7.06349e-05
-6.12178e-06
-5.23089e-05
9.422e-06
-3.3803e-05
1.94364e-05
-1.60593e-05
2.42803e-05
1.00082e-08
2.45988e-05
1.35281e-05
2.13067e-05
2.36352e-05
1.55821e-05
2.94453e-05
8.87104e-06
3.00036e-05
2.93371e-06
2.42499e-05
1.099e-05
-2.06789e-06
1.44255e-06
-8.28975e-06
1.0001e-05
-1.84657e-05
2.14624e-05
-3.23044e-05
3.38869e-05
-4.95372e-05
4.63244e-05
-6.99565e-05
5.83837e-05
-9.34108e-05
6.99617e-05
-0.000119775
8.10625e-05
-0.000148914
9.1679e-05
-0.000180642
0.000101728
-0.000214694
0.000111026
-0.000250706
0.000119295
-0.000288203
0.000126178
-0.000326604
0.000131276
-0.000365229
0.000134173
-0.000403321
0.000134477
-0.000440073
0.00013185
-0.000474654
0.000126033
-0.000506241
0.000116872
-0.000534045
0.000104331
-0.00055734
8.85024e-05
-0.000575479
6.96074e-05
-0.000587916
4.79957e-05
-0.000594213
2.41374e-05
-0.000594054
-1.38578e-06
-0.000587257
-2.78865e-05
-0.000573781
-5.46065e-05
-0.000553739
-8.07223e-05
-0.000527408
-0.000105371
-0.000495241
-0.000127681
-0.000457874
-0.000146805
-0.000416127
-0.000161965
-0.00037099
-0.000172498
-0.00032361
-0.000177906
-0.000275251
-0.0001779
-0.000227248
-0.000172439
-0.000180948
-0.000161755
-0.000137636
-0.000146356
-9.84695e-05
-0.000127009
-6.4405e-05
-0.000104699
-3.61413e-05
-8.05726e-05
-1.40749e-05
-5.58694e-05
1.7261e-06
-3.18603e-05
1.15326e-05
-9.79654e-06
1.59488e-05
9.11195e-06
1.58905e-05
2.36934e-05
1.25757e-05
3.27601e-05
7.52144e-06
3.50579e-05
2.5729e-06
2.91984e-05
1.35629e-05
-3.21456e-06
4.65709e-06
-1.21537e-05
1.89401e-05
-2.60691e-05
3.53777e-05
-4.43021e-05
5.21198e-05
-6.63615e-05
6.83839e-05
-9.192e-05
8.39421e-05
-0.000120766
9.8808e-05
-0.000152742
0.000113038
-0.000187676
0.000126614
-0.000225339
0.00013939
-0.000265399
0.000151087
-0.000307414
0.00016131
-0.000350821
0.000169585
-0.000394949
0.000175404
-0.000439041
0.000178264
-0.000482277
0.000177713
-0.000523807
0.000173379
-0.000562779
0.000165005
-0.000598368
0.000152461
-0.000629797
0.00013576
-0.000656355
0.00011506
-0.000677409
9.06611e-05
-0.000692412
6.29983e-05
-0.000700909
3.2635e-05
-0.000702547
2.52229e-07
-0.000697079
-3.33544e-05
-0.000684382
-6.73045e-05
-0.000664467
-0.000100637
-0.000637505
-0.000132333
-0.000603844
-0.000161342
-0.000564027
-0.000186622
-0.000518804
-0.000207188
-0.000469138
-0.000222165
-0.000416192
-0.000230851
-0.000361307
-0.000232785
-0.000305947
-0.000227798
-0.000251643
-0.000216059
-0.000199908
-0.000198091
-0.000152153
-0.000174765
-0.000109594
-0.000147258
-7.31789e-05
-0.000116988
-4.35206e-05
-8.55277e-05
-2.08613e-05
-5.45196e-05
-5.0548e-06
-2.56031e-05
4.42835e-06
-3.71201e-07
8.48502e-06
1.96368e-05
8.34749e-06
3.28976e-05
5.57275e-06
3.78326e-05
2.04351e-06
3.27277e-05
1.56064e-05
-4.44009e-06
9.09716e-06
-1.6255e-05
3.0755e-05
-3.40893e-05
5.3212e-05
-5.6879e-05
7.49095e-05
-8.38887e-05
9.53935e-05
-0.000114658
0.000114711
-0.000148908
0.000133058
-0.000186439
0.000150569
-0.000227042
0.000167217
-0.000270438
0.000182785
-0.000316234
0.000196883
-0.000363917
0.000208993
-0.000412856
0.000218523
-0.000462316
0.000224865
-0.000511495
0.000227443
-0.000559547
0.000225765
-0.000605616
0.000219448
-0.000648861
0.000208251
-0.000688482
0.000192082
-0.000723727
0.000171006
-0.000753908
0.000145241
-0.000778399
0.000115152
-0.000796644
8.12426e-05
-0.000808154
4.41449e-05
-0.000812515
4.61412e-06
-0.000809396
-3.64738e-05
-0.000798564
-7.81365e-05
-0.000779904
-0.000119297
-0.000753444
-0.000158793
-0.000719386
-0.0001954
-0.000678131
-0.000227877
-0.000630314
-0.000255005
-0.000576816
-0.000275662
-0.000518775
-0.000288893
-0.000457566
-0.000293994
-0.00039477
-0.000290594
-0.000332103
-0.000278725
-0.000271331
-0.000258863
-0.00021416
-0.000231936
-0.000162125
-0.000199293
-0.000116485
-0.000162628
-7.81353e-05
-0.000123877
-4.75472e-05
-8.51077e-05
-2.47426e-05
-4.84077e-05
-9.29675e-06
-1.5817e-05
-3.60552e-07
1.07006e-05
3.29831e-06
2.92387e-05
3.26083e-06
3.78701e-05
1.4281e-06
3.45604e-05
1.70345e-05
-5.70823e-06
1.48054e-05
-2.04664e-05
4.55131e-05
-4.2273e-05
7.50185e-05
-6.96379e-05
0.000102274
-0.000101571
0.000127327
-0.000137474
0.000150614
-0.000176994
0.000172578
-0.000219888
0.000193462
-0.000265903
0.000213233
-0.000314713
0.000231595
-0.00036587
0.00024804
-0.000418804
0.000261928
-0.000472835
0.000272553
-0.000527194
0.000279224
-0.000581061
0.000281311
-0.000633594
0.000278298
-0.000683957
0.000269811
-0.000731341
0.000255635
-0.000774979
0.000235719
-0.00081415
0.000210178
-0.000848187
0.000179278
-0.000876469
0.000143435
-0.000898426
0.000103199
-0.000913533
5.92519e-05
-0.000921318
1.23995e-05
-0.000921364
-3.6428e-05
-0.00091333
-8.61708e-05
-0.000896963
-0.000135664
-0.000872132
-0.000183624
-0.000838858
-0.000228674
-0.00079736
-0.000269375
-0.000748092
-0.000304273
-0.000691786
-0.000331969
-0.000629478
-0.000351201
-0.00056252
-0.000360952
-0.000492554
-0.000360561
-0.000421458
-0.000349821
-0.000351255
-0.000329066
-0.000283984
-0.000299207
-0.000221564
-0.000261713
-0.000165647
-0.000218545
-0.000117495
-0.00017203
-7.78885e-05
-0.000124714
-4.70839e-05
-7.92124e-05
-2.48066e-05
-3.80942e-05
-1.02853e-05
-3.82085e-06
-2.30071e-06
2.12542e-05
7.45803e-07
3.48236e-05
7.81852e-07
3.45243e-05
1.78164e-05
-6.97916e-06
2.17845e-05
-2.4655e-05
6.31888e-05
-5.03634e-05
0.000100727
-8.21833e-05
0.000134094
-0.00011887
0.000164013
-0.000159686
0.00019143
-0.000204204
0.000217097
-0.000252133
0.000241391
-0.000303179
0.000264279
-0.000356967
0.000285382
-0.000413004
0.000304078
-0.00047068
0.000319603
-0.000529283
0.000331156
-0.000588034
0.000337974
-0.000646117
0.000339394
-0.000702713
0.000334893
-0.000757015
0.000324114
-0.000808255
0.000306874
-0.0008557
0.000283164
-0.000898662
0.000253139
-0.000936493
0.00021711
-0.000968587
0.000175528
-0.00099437
0.000128982
-0.0010133
7.81846e-05
-0.00102488
2.3976e-05
-0.00102862
-3.26838e-05
-0.00102411
-9.06867e-05
-0.00101096
-0.000148816
-0.000988874
-0.000205705
-0.000957687
-0.000259861
-0.000917382
-0.00030968
-0.000868171
-0.000353485
-0.000810547
-0.000389592
-0.00074535
-0.000416398
-0.000673798
-0.000432504
-0.000597506
-0.000436853
-0.000518445
-0.000428882
-0.000438863
-0.000408648
-0.000361149
-0.000376921
-0.000287659
-0.000335203
-0.000220531
-0.000285674
-0.000161502
-0.000231059
-0.000111776
-0.000174439
-7.19397e-05
-0.000119049
-4.19411e-05
-6.80929e-05
-2.11292e-05
-2.46327e-05
-8.32058e-06
8.44552e-06
-1.89214e-06
2.83951e-05
1.32818e-07
3.24994e-05
1.79492e-05
-8.20897e-06
2.99935e-05
-2.86809e-05
8.36607e-05
-5.80986e-05
0.000130144
-9.4121e-05
0.000170117
-0.000135256
0.000205148
-0.000180631
0.000236805
-0.000229745
0.000266211
-0.000282256
0.000293902
-0.000337828
0.00031985
-0.000396044
0.000343598
-0.000456374
0.000364408
-0.000518178
0.000381407
-0.000580731
0.00039371
-0.000643256
0.0004005
-0.000704954
0.000401092
-0.000765032
0.00039497
-0.000822718
0.0003818
-0.000877278
0.000361434
-0.000928015
0.000333901
-0.000974275
0.000299399
-0.00101544
0.000258279
-0.00105095
0.00021103
-0.00108024
0.000158274
-0.0011028
0.000100751
-0.00111815
3.93221e-05
-0.00112579
-2.5045e-05
-0.00112525
-9.12288e-05
-0.00111606
-0.000158004
-0.00109779
-0.000223976
-0.00107005
-0.000287594
-0.00103259
-0.000347145
-0.000985298
-0.000400776
-0.000928348
-0.000446542
-0.000862259
-0.000482487
-0.000787984
-0.000506779
-0.000706965
-0.000517871
-0.000621147
-0.0005147
-0.000532916
-0.000496879
-0.000444975
-0.000464862
-0.000360147
-0.00042003
-0.000281139
-0.000364682
-0.000210294
-0.000301904
-0.00014938
-0.000235353
-9.94502e-05
-0.000168979
-6.07864e-05
-0.000106757
-3.29291e-05
-5.24899e-05
-1.47664e-05
-9.7172e-06
-4.64855e-06
1.82772e-05
-5.16294e-07
2.83671e-05
1.74329e-05
-9.35081e-06
3.93442e-05
-3.24005e-05
0.00010671
-6.52167e-05
0.000162961
-0.000105065
0.000209964
-0.000150219
0.000250303
-0.000199678
0.000286264
-0.000252865
0.000319399
-0.000309388
0.000350425
-0.000368868
0.00037933
-0.00043085
0.00040558
-0.000494774
0.000428331
-0.000559981
0.000446614
-0.000625739
0.000459468
-0.000691279
0.000466039
-0.000755818
0.000465631
-0.000818587
0.00045774
-0.000878844
0.000442057
-0.000935885
0.000418474
-0.000989049
0.000387066
-0.00103773
0.000348079
-0.00108136
0.000301913
-0.00111944
0.000249109
-0.0011515
0.000190328
-0.00117709
0.00012634
-0.00119578
5.80167e-05
-0.00120714
-1.36821e-05
-0.00121071
-8.76634e-05
-0.00120597
-0.000162738
-0.0011924
-0.000237553
-0.00116942
-0.000310572
-0.00113651
-0.000380058
-0.00109322
-0.00044406
-0.00103933
-0.000500434
-0.000974915
-0.000546905
-0.000900502
-0.000581192
-0.00081719
-0.000601184
-0.00072671
-0.00060518
-0.000631431
-0.000592158
-0.000534267
-0.000562027
-0.000438477
-0.00051582
-0.000347388
-0.00045577
-0.000264071
-0.000385221
-0.000191026
-0.000308398
-0.000129953
-0.000230052
-8.16249e-05
-0.000155085
-4.58873e-05
-8.82275e-05
-2.17596e-05
-3.38449e-05
-7.58331e-06
4.10091e-06
-1.18354e-06
2.19673e-05
1.62494e-05
-1.03571e-05
4.97013e-05
-3.56716e-05
0.000132025
-7.14644e-05
0.000198753
-0.000114647
0.000253147
-0.000163281
0.000298936
-0.000216239
0.000339222
-0.000272871
0.000376031
-0.000332731
0.000410284
-0.000395397
0.000441996
-0.00046038
0.000470563
-0.000527092
0.000495044
-0.00059486
0.000514381
-0.000662947
0.000527555
-0.000730587
0.000533679
-0.000797009
0.000532054
-0.000861459
0.00052219
-0.000923217
0.000503815
-0.00098161
0.000476867
-0.00103602
0.000441479
-0.00108591
0.000397965
-0.00113079
0.000346797
-0.00117027
0.000288584
-0.00120398
0.000224043
-0.00123162
0.000153982
-0.00125288
7.9278e-05
-0.00126744
8.72492e-07
-0.00127488
-8.02171e-05
-0.00127475
-0.000162875
-0.00126644
-0.00024586
-0.00124927
-0.000327742
-0.00122247
-0.000406859
-0.00118526
-0.000481268
-0.00113696
-0.000548731
-0.00107713
-0.000606736
-0.00100573
-0.000652593
-0.000923311
-0.000683603
-0.000831167
-0.000697324
-0.000731423
-0.000691903
-0.000627007
-0.000666443
-0.000521496
-0.000621331
-0.00041882
-0.000558446
-0.000322859
-0.000481182
-0.000237019
-0.000394238
-0.000163858
-0.000303213
-0.000104849
-0.000214094
-6.03127e-05
-0.000132763
-2.95054e-05
-6.46521e-05
-1.08025e-05
-1.46021e-05
-1.90204e-06
1.30669e-05
1.43473e-05
-1.1182e-05
6.08832e-05
-3.83604e-05
0.000159203
-7.66069e-05
0.000237
-0.000122533
0.000299073
-0.000174009
0.000350412
-0.000229789
0.000395002
-0.000289146
0.000435388
-0.000351579
0.000472717
-0.000416621
0.000507038
-0.000483748
0.00053769
-0.000552348
0.000563644
-0.000621729
0.000583762
-0.000691147
0.000596973
-0.000759832
0.000602365
-0.000827017
0.000599238
-0.000891956
0.000587129
-0.000953948
0.000565808
-0.00101236
0.000535275
-0.00106662
0.000495747
-0.00111629
0.000447632
-0.001161
0.000391501
-0.00120047
0.000328058
-0.00123452
0.000258095
-0.00126301
0.000182466
-0.00128579
0.000102057
-0.00130269
1.77726e-05
-0.00131344
-6.94665e-05
-0.00131765
-0.000158663
-0.00131476
-0.00024875
-0.00130401
-0.000338487
-0.00128448
-0.00042639
-0.0012551
-0.000510653
-0.00121475
-0.00058908
-0.00116243
-0.000659058
-0.00109743
-0.000717591
-0.00101959
-0.000761443
-0.000929522
-0.00078739
-0.000828824
-0.0007926
-0.00072016
-0.000775107
-0.000607194
-0.000734296
-0.000494329
-0.000671311
-0.000386262
-0.00058925
-0.000287432
-0.000493067
-0.000201483
-0.000389162
-0.000130846
-0.000284731
-7.65484e-05
-0.000187061
-3.8247e-05
-0.000102954
-1.44364e-05
-3.84126e-05
-2.71372e-06
1.3442e-06
1.16336e-05
-1.17845e-05
7.26677e-05
-4.03484e-05
0.000187767
-8.04385e-05
0.00027709
-0.000128432
0.000347066
-0.000182033
0.000404013
-0.000239882
0.000452851
-0.000301172
0.000496678
-0.000365342
0.000536886
-0.00043188
0.000573576
-0.000500224
0.000606035
-0.000569735
0.000633155
-0.000639701
0.000653728
-0.000709364
0.000666635
-0.000777943
0.000670944
-0.000844669
0.000665964
-0.000908802
0.000651262
-0.000969665
0.000626671
-0.00102667
0.00059228
-0.00107934
0.000548414
-0.00112731
0.000495609
-0.00117038
0.000434565
-0.00120842
0.000366104
-0.00124144
0.000291115
-0.00126948
0.000210507
-0.0012926
0.000125174
-0.0013108
3.59755e-05
-0.001324
-5.62706e-05
-0.00133193
-0.00015073
-0.00133413
-0.000246548
-0.00132988
-0.000342739
-0.00131818
-0.000438096
-0.00129775
-0.000531074
-0.00126716
-0.000619674
-0.00122487
-0.000701352
-0.00116947
-0.000772985
-0.00109999
-0.00083093
-0.00101613
-0.000871242
-0.000918688
-0.000890046
-0.000809704
-0.000884092
-0.000692596
-0.000851404
-0.00057198
-0.000791927
-0.000453246
-0.000707984
-0.000341913
-0.0006044
-0.000242903
-0.000488173
-0.000159887
-0.000367747
-9.4893e-05
-0.000252056
-4.82165e-05
-0.00014963
-1.8619e-05
-6.80101e-05
-3.66076e-06
-1.36141e-05
7.97283e-06
-1.21307e-05
8.47984e-05
-4.15381e-05
0.000217174
-8.27918e-05
0.000318343
-0.000132109
0.000396383
-0.000187056
0.000458961
-0.000246166
0.000511961
-0.000308546
0.000559058
-0.000373571
0.000601911
-0.000440677
0.000640683
-0.000509267
0.000674624
-0.00057867
0.000702557
-0.000648151
0.000723209
-0.000716933
0.000735418
-0.000784224
0.000738236
-0.000849251
0.00073099
-0.000911287
0.000713298
-0.000969692
0.000685076
-0.00102394
0.000646528
-0.00107365
0.000598124
-0.00111859
0.000540553
-0.0011587
0.000474674
-0.00119405
0.000401448
-0.0012248
0.000321871
-0.00125121
0.000236916
-0.00127353
0.000147488
-0.00129195
5.43962e-05
-0.00130657
-4.16479e-05
-0.00131731
-0.00013999
-0.00132385
-0.000240005
-0.00132558
-0.000341007
-0.00132155
-0.000442128
-0.00131043
-0.000542191
-0.00129056
-0.000639543
-0.00126002
-0.000731901
-0.00121677
-0.000816232
-0.00115899
-0.00088871
-0.00108539
-0.000944838
-0.000995674
-0.000979762
-0.000890922
-0.000988844
-0.00077388
-0.000968445
-0.000648985
-0.000916822
-0.000522038
-0.000834931
-0.000399544
-0.000726893
-0.00028781
-0.000599907
-0.000192018
-0.000463539
-0.00011553
-0.000328543
-5.95952e-05
-0.000205565
-2.34642e-05
-0.000104141
-4.7808e-06
-3.22975e-05
3.19202e-06
-1.21965e-05
9.69948e-05
-4.18596e-05
0.000246838
-8.35456e-05
0.000360029
-0.000133395
0.000446232
-0.00018887
0.000514435
-0.000248396
0.000571488
-0.000310994
0.000621656
-0.000375966
0.000666883
-0.000442698
0.000707414
-0.00051055
0.000742477
-0.000578822
0.000770829
-0.000646756
0.000791143
-0.000713555
0.000802217
-0.000778422
0.000803102
-0.000840585
0.000793154
-0.000899347
0.00077206
-0.00095412
0.000739849
-0.00100446
0.000696869
-0.0010501
0.000643762
-0.00109095
0.0005814
-0.00112709
0.000510815
-0.00115876
0.00043312
-0.00118631
0.000349424
-0.00121016
0.000260765
-0.00123073
0.000168057
-0.0012484
7.20622e-05
-0.00126343
-2.66127e-05
-0.00127593
-0.000127489
-0.00128577
-0.00023017
-0.0012925
-0.000334272
-0.00129533
-0.000439302
-0.00129301
-0.000544512
-0.00128384
-0.000648709
-0.00126569
-0.000750051
-0.00123609
-0.000845835
-0.00119246
-0.000932334
-0.00113252
-0.00100478
-0.00105474
-0.00105754
-0.000958925
-0.00108466
-0.000846712
-0.00108066
-0.000721863
-0.00104167
-0.000590152
-0.000966642
-0.000458794
-0.000858251
-0.000335444
-0.000723258
-0.000226989
-0.000571994
-0.000138477
-0.000417055
-7.24816e-05
-0.00027156
-2.90507e-05
-0.000147572
-6.10468e-06
-5.52435e-05
-2.91265e-06
-1.19688e-05
0.000108964
-4.12732e-05
0.000276142
-8.26306e-05
0.000401387
-0.000132194
0.000495796
-0.000187356
0.000569597
-0.000246443
0.000630575
-0.000308381
0.000683594
-0.000372398
0.0007309
-0.000437824
0.000772841
-0.000503981
0.000808633
-0.000570139
0.000836987
-0.00063552
0.000856524
-0.000699321
0.000866018
-0.000760743
0.000864525
-0.00081904
0.000851451
-0.000873557
0.000826578
-0.00092378
0.000790071
-0.000969364
0.000742453
-0.00101016
0.000684559
-0.00104622
0.000617459
-0.00107777
0.000542369
-0.00110521
0.000460552
-0.00112901
0.000373226
-0.00114973
0.000281487
-0.00116793
0.000186256
-0.00118411
8.82486e-05
-0.0011987
-1.20229e-05
-0.00121196
-0.000114236
-0.00122393
-0.0002182
-0.00123439
-0.000323811
-0.00124275
-0.000430934
-0.001248
-0.000539266
-0.00124857
-0.00064814
-0.00124233
-0.000756286
-0.00122662
-0.000861549
-0.00119835
-0.000960606
-0.00115435
-0.00104877
-0.00109189
-0.00112001
-0.00100931
-0.00116725
-0.00090675
-0.00118321
-0.000786777
-0.00116165
-0.000654565
-0.00109885
-0.000517574
-0.000995242
-0.000384576
-0.000856256
-0.000264223
-0.000692347
-0.00016355
-0.000517729
-8.68726e-05
-0.000348238
-3.54166e-05
-0.000199028
-7.65286e-06
-8.30073e-05
-1.05655e-05
-1.1447e-05
0.000120411
-3.97728e-05
0.000304468
-8.00324e-05
0.000441647
-0.000128487
0.000544251
-0.000182495
0.000623604
-0.000240294
0.000688374
-0.000300713
0.000744013
-0.000362902
0.000793089
-0.000426135
0.000836074
-0.000489697
0.000872195
-0.000552837
0.000900127
-0.000614768
0.000918456
-0.000674691
0.00092594
-0.000731828
0.000921662
-0.000785474
0.000905097
-0.000835043
0.000876146
-0.000880107
0.000835136
-0.000920436
0.000782783
-0.000956007
0.000720129
-0.000986997
0.000648449
-0.00101376
0.000569137
-0.00103681
0.000483596
-0.00105672
0.000393138
-0.00107414
0.000298907
-0.0010897
0.000201821
-0.00110401
0.000102552
-0.00111756
1.528e-06
-0.00113074
-0.000101055
-0.00114376
-0.000205177
-0.00115661
-0.000310963
-0.00116896
-0.000418588
-0.00118007
-0.000528157
-0.00118867
-0.000639533
-0.00119288
-0.000752083
-0.00119007
-0.000864358
-0.00117696
-0.000973715
-0.00114979
-0.00107594
-0.00110477
-0.00116502
-0.00103877
-0.00123325
-0.000950217
-0.00127177
-0.000839977
-0.00127188
-0.000712009
-0.00122682
-0.000573392
-0.00113386
-0.00043357
-0.000996078
-0.000302823
-0.000823094
-0.000190363
-0.000630188
-0.000102656
-0.000435945
-4.25547e-05
-0.000259129
-9.43408e-06
-0.000116128
-1.99996e-05
-1.06427e-05
0.000131053
-3.73858e-05
0.000331211
-7.57926e-05
0.000480053
-0.000122328
0.000590786
-0.000174362
0.000675638
-0.000230053
0.000744065
-0.000288135
0.000802095
-0.000347677
0.000852631
-0.000407899
0.000896296
-0.000468055
0.000932351
-0.000527386
0.000959458
-0.000585109
0.00097618
-0.000640449
0.00098128
-0.000692671
0.000973884
-0.000741133
0.00095356
-0.000785336
0.000920348
-0.000824956
0.000874756
-0.00085988
0.000817706
-0.000890202
0.000750452
-0.000916214
0.000674461
-0.000938371
0.000591294
-0.00095725
0.000502475
-0.0009735
0.000409388
-0.000987797
0.000313204
-0.00100081
0.000214831
-0.00101315
0.000114896
-0.00102538
1.37536e-05
-0.00103794
-8.84944e-05
-0.00105116
-0.000191957
-0.0010652
-0.000296924
-0.00107998
-0.000403808
-0.00109509
-0.000513048
-0.00110964
-0.000624977
-0.00112213
-0.000739591
-0.00113027
-0.000856225
-0.00113087
-0.000973108
-0.00111996
-0.00108685
-0.00109301
-0.00119197
-0.00104561
-0.00128064
-0.000974415
-0.00134297
-0.000878276
-0.00136802
-0.000759343
-0.00134576
-0.000623595
-0.00126961
-0.000480503
-0.00113917
-0.000341612
-0.000961984
-0.000218329
-0.000753472
-0.000119608
-0.000534666
-5.0412e-05
-0.000328325
-1.1446e-05
-0.000155094
-3.14456e-05
-9.57965e-06
0.000140633
-3.41723e-05
0.000355803
-7.00061e-05
0.000515887
-0.000113847
0.000634628
-0.000163124
0.000724915
-0.000215936
0.000796877
-0.000270921
0.00085708
-0.00032707
0.000908781
-0.000383553
0.000952779
-0.000439604
0.000988402
-0.000494466
0.00101432
-0.000547384
0.0010291
-0.000597625
0.00103152
-0.000644521
0.00102078
-0.000687514
0.000996553
-0.000726204
0.000959039
-0.000760382
0.000908935
-0.000790047
0.000847371
-0.000815399
0.000775804
-0.000836818
0.000695881
-0.000854827
0.000609303
-0.000870039
0.000517687
-0.000883119
0.000422468
-0.000894736
0.000324821
-0.000905534
0.000225629
-0.000916112
0.000125474
-0.000927009
2.46505e-05
-0.000938695
-7.68084e-05
-0.000951556
-0.000179096
-0.000965875
-0.000282606
-0.000981782
-0.000387901
-0.000999167
-0.000495662
-0.00101755
-0.000606591
-0.00103591
-0.000721234
-0.00105245
-0.00083969
-0.0010644
-0.000961157
-0.00106792
-0.00108333
-0.0010582
-0.00120169
-0.00102991
-0.00130894
-0.000978077
-0.0013948
-0.000899455
-0.00144665
-0.00079392
-0.00145129
-0.000665643
-0.00139788
-0.00052334
-0.00128147
-0.000379227
-0.0011061
-0.000246697
-0.000886001
-0.000137407
-0.000643956
-5.88913e-05
-0.00040684
-1.36766e-05
-0.000200309
-4.51221e-05
-8.29189e-06
0.000148925
-3.02219e-05
0.000377734
-6.28181e-05
0.000548483
-0.000103242
0.000675051
-0.000149033
0.000770706
-0.000198253
0.000846097
-0.000249455
0.000908282
-0.000301554
0.000960879
-0.000353674
0.0010049
-0.000405042
0.00103977
-0.00045492
0.0010642
-0.000502598
0.00107678
-0.000547409
0.00107633
-0.000588769
0.00106214
-0.000626222
0.00103401
-0.00065948
0.000992296
-0.000688443
0.000937898
-0.000713215
0.000872142
-0.00073408
0.000796669
-0.000751482
0.000713283
-0.000765974
0.000623794
-0.000778173
0.000529887
-0.000788721
0.000433016
-0.000798243
0.000334343
-0.000807327
0.000234713
-0.000816514
0.000134661
-0.000826293
3.44294e-05
-0.000837107
-6.59937e-05
-0.000849356
-0.000166847
-0.00086339
-0.000268573
-0.000879482
-0.000371809
-0.000897771
-0.000477373
-0.000918145
-0.000586217
-0.000940067
-0.000699312
-0.000962333
-0.000817423
-0.000982795
-0.000940696
-0.000998093
-0.00106803
-0.00100355
-0.00119623
-0.000993404
-0.00131909
-0.000961474
-0.00142673
-0.000902509
-0.00150561
-0.000813896
-0.0015399
-0.000697391
-0.00151439
-0.000560132
-0.00141873
-0.000414226
-0.001252
-0.000274604
-0.00102562
-0.000155644
-0.000762916
-6.78554e-05
-0.000494628
-1.61036e-05
-0.000252061
-6.12257e-05
-6.82235e-06
0.000155747
-2.565e-05
0.000396561
-5.44169e-05
0.00057725
-9.07673e-05
0.000711402
-0.000132411
0.00081235
-0.000177401
0.000891087
-0.000224217
0.000955099
-0.000271703
0.00100837
-0.000318948
0.00105214
-0.000365179
0.001086
-0.000409695
0.00110872
-0.000451849
0.00111893
-0.000491059
0.00111554
-0.000526844
0.00109792
-0.000558857
0.00106602
-0.000586923
0.00102036
-0.000611047
0.000962022
-0.000631418
0.000892514
-0.000648386
0.000813637
-0.000662424
0.000727321
-0.000674088
0.000635458
-0.000683969
0.000539768
-0.000692654
0.000441701
-0.0007007
0.00034239
-0.000708618
0.000242631
-0.000716867
0.00014291
-0.000725862
4.34247e-05
-0.000735992
-5.58636e-05
-0.000747628
-0.000155211
-0.000761137
-0.000255064
-0.000776872
-0.000356073
-0.000795141
-0.000459104
-0.000816123
-0.000565235
-0.000839714
-0.000675721
-0.0008653
-0.000791837
-0.000891436
-0.00091456
-0.000915483
-0.00104398
-0.000933301
-0.00117841
-0.000939186
-0.00131321
-0.000926284
-0.00143963
-0.000887717
-0.00154418
-0.000818411
-0.00160921
-0.000717311
-0.00161549
-0.000589212
-0.00154683
-0.000445221
-0.00139599
-0.000301135
-0.00116971
-0.000173853
-0.000890199
-7.71336e-05
-0.000591348
-1.86954e-05
-0.000310499
-7.99211e-05
-5.22034e-06
0.000160968
-2.05922e-05
0.000411933
-4.50278e-05
0.000601686
-7.67315e-05
0.000743106
-0.000113644
0.000849262
-0.000153845
0.000931289
-0.00019576
0.000997013
-0.00023817
0.00105078
-0.000280134
0.00109411
-0.000320892
0.00112676
-0.000359793
0.00114762
-0.000396268
0.0011554
-0.000429837
0.00114911
-0.000460127
0.00112822
-0.000486911
0.0010928
-0.000510117
0.00104357
-0.000529846
0.000981751
-0.000546352
0.00090902
-0.000560023
0.000827308
-0.000571338
0.000738636
-0.000580827
0.000644947
-0.000589029
0.00054797
-0.000596463
0.000449135
-0.000603601
0.000349528
-0.000610863
0.000249893
-0.00061862
0.000150666
-0.000627205
5.201e-05
-0.000636935
-4.61337e-05
-0.00064813
-0.000144016
-0.000661132
-0.000242062
-0.000676321
-0.000340885
-0.000694095
-0.000441329
-0.000714829
-0.000544502
-0.000738755
-0.000651795
-0.000765768
-0.000764823
-0.000795116
-0.000885213
-0.000824984
-0.00101411
-0.000852044
-0.00115135
-0.000871121
-0.00129413