/*--------------------------------*- C++ -*----------------------------------*\
  =========                 |
  \\      /  F ield         | OpenFOAM: The Open Source CFD Toolbox
   \\    /   O peration     | Website:  https://openfoam.org
    \\  /    A nd           | Version:  7
     \\/     M anipulation  |
\*---------------------------------------------------------------------------*/
FoamFile
{
    version     2.0;
    format      ascii;
    class       volScalarField;
    location    "750";
    object      p;
}
// * * * * * * * * * * * * * * * * * * * * * * * * * * * * * * * * * * * * * //

dimensions      [0 2 -2 0 0 0 0];

internalField   nonuniform List<scalar> 
2500
(
9.3776e-09
7.0892e-05
-9.12666e-06
-0.000308092
-0.000782637
-0.00137033
-0.00203101
-0.00276016
-0.00358349
-0.0045417
-0.00567484
-0.0070128
-0.0085725
-0.0103536
-0.0123328
-0.0144557
-0.0166302
-0.0187246
-0.0205739
-0.0219957
-0.0228153
-0.0228931
-0.0221536
-0.0206131
-0.0183975
-0.0157329
-0.0129407
-0.0104385
-0.00868816
-0.00812791
-0.00909111
-0.0117153
-0.0158883
-0.0213151
-0.0275363
-0.0339905
-0.0401486
-0.0456094
-0.0501415
-0.0536697
-0.0562436
-0.0579981
-0.0591076
-0.059748
-0.0600713
-0.0601936
-0.0601929
-0.0601117
-0.0599724
-0.0598333
-6.92028e-05
3.58193e-06
-8.03185e-05
-0.000376911
-0.000829439
-0.00137374
-0.0019747
-0.00263379
-0.00337961
-0.00425248
-0.00529125
-0.00652585
-0.00797699
-0.00965241
-0.0115404
-0.0136043
-0.0157729
-0.0179348
-0.0199371
-0.0215957
-0.0227183
-0.0231347
-0.0227311
-0.0214829
-0.0194852
-0.0169549
-0.0142289
-0.0117429
-0.00997769
-0.0093906
-0.0103307
-0.0129577
-0.0171881
-0.022673
-0.0289101
-0.0353512
-0.041442
-0.0467413
-0.0510093
-0.0542186
-0.0564869
-0.0579956
-0.0589382
-0.0594873
-0.0597792
-0.0599112
-0.0599452
-0.0599107
-0.0598092
-0.0596775
-1.91785e-05
4.94638e-05
-5.75558e-05
-0.000380153
-0.000832683
-0.00133938
-0.00187009
-0.00243763
-0.00308309
-0.00385402
-0.00479454
-0.00594505
-0.00734358
-0.00902459
-0.0110081
-0.0132829
-0.0157886
-0.0184034
-0.0209449
-0.0231863
-0.0248883
-0.0258368
-0.0258802
-0.0249671
-0.0231897
-0.0207754
-0.0180611
-0.0154805
-0.0135263
-0.0126796
-0.0133225
-0.0156537
-0.0196289
-0.024947
-0.0310994
-0.0374647
-0.0434648
-0.0486573
-0.0527611
-0.0557104
-0.0576349
-0.0587801
-0.0593994
-0.0596976
-0.0598194
-0.0598544
-0.0598493
-0.0598138
-0.059718
-0.0595737
0.000228127
0.00026611
0.000101548
-0.000279876
-0.000755769
-0.00123718
-0.00170317
-0.00218589
-0.0027464
-0.00345581
-0.00438752
-0.00562107
-0.00724134
-0.00932534
-0.011916
-0.0149929
-0.018453
-0.0221079
-0.0257012
-0.0289423
-0.0315468
-0.0332749
-0.0339616
-0.0335433
-0.032092
-0.0298102
-0.0270099
-0.0241121
-0.0216124
-0.0200177
-0.0197656
-0.0211363
-0.0241797
-0.0286833
-0.0341968
-0.0401174
-0.0458225
-0.0507927
-0.0547321
-0.0575506
-0.0592991
-0.0601889
-0.0605012
-0.060496
-0.0603577
-0.0601963
-0.0600622
-0.0599563
-0.0598264
-0.0596615
0.000707593
0.000677366
0.00041805
-4.42274e-05
-0.000555501
-0.00102947
-0.00146064
-0.00190906
-0.00247546
-0.00328185
-0.00446535
-0.00617385
-0.00854664
-0.0116793
-0.0155859
-0.0201755
-0.0252516
-0.0305329
-0.0356889
-0.0403786
-0.0442874
-0.0471576
-0.0488109
-0.0491635
-0.0482447
-0.0461993
-0.0432925
-0.0399101
-0.0365243
-0.0336497
-0.0317788
-0.0313008
-0.0324181
-0.0350877
-0.0390099
-0.0436798
-0.0484973
-0.0529012
-0.0564913
-0.0590797
-0.0606996
-0.0615073
-0.0616937
-0.0615091
-0.0611727
-0.0608277
-0.0605479
-0.0603463
-0.06017
-0.0599932
0.00146297
0.0013288
0.000949299
0.000397606
-0.000168621
-0.000675232
-0.00114697
-0.00169673
-0.00249386
-0.00374462
-0.00567471
-0.00849822
-0.0123707
-0.017343
-0.023335
-0.0301383
-0.0374434
-0.0448785
-0.0520504
-0.0585792
-0.0641276
-0.0684247
-0.0712836
-0.0726058
-0.0723882
-0.070715
-0.067785
-0.0639194
-0.0595247
-0.055076
-0.0510773
-0.0480003
-0.0462109
-0.0458954
-0.0470086
-0.0492678
-0.05221
-0.0553055
-0.058087
-0.0602443
-0.0616565
-0.062372
-0.0625547
-0.0623672
-0.0619812
-0.0615558
-0.0611902
-0.0609218
-0.0607166
-0.0605452
0.00253269
0.00226973
0.00176084
0.00110927
0.000452241
-0.000167191
-0.000837261
-0.00175374
-0.00318618
-0.00544479
-0.00883145
-0.0135753
-0.0197729
-0.027357
-0.0361026
-0.0456612
-0.0556082
-0.0654904
-0.0748662
-0.0833356
-0.0905634
-0.0962945
-0.100357
-0.10266
-0.103197
-0.10202
-0.0992565
-0.0951387
-0.0899685
-0.0841199
-0.0780257
-0.0721513
-0.0669539
-0.0628238
-0.0600139
-0.0585815
-0.058368
-0.059035
-0.0601552
-0.0613263
-0.0622599
-0.0628165
-0.0629946
-0.0628821
-0.0625828
-0.0622082
-0.0618578
-0.0615892
-0.0613936
-0.0612485
0.00392305
0.00352398
0.00288487
0.00211111
0.00129569
0.00041076
-0.000729104
-0.00243318
-0.0050866
-0.00908335
-0.0147388
-0.0222085
-0.0314454
-0.0422043
-0.0540859
-0.0665966
-0.0792093
-0.0914147
-0.102758
-0.112861
-0.121439
-0.128292
-0.133296
-0.136389
-0.137588
-0.136956
-0.134563
-0.130553
-0.125112
-0.11847
-0.110915
-0.102795
-0.0945246
-0.0865601
-0.0793622
-0.073331
-0.0687309
-0.0656263
-0.06386
-0.0630995
-0.0629406
-0.0630222
-0.0630994
-0.0630656
-0.0629167
-0.062694
-0.0624605
-0.0622698
-0.0621297
-0.0620291
0.00557918
0.00505093
0.00427662
0.00333814
0.00223971
0.000842962
-0.00116441
-0.00421843
-0.00879635
-0.0153062
-0.0239771
-0.0347939
-0.0474947
-0.0616214
-0.0765962
-0.0918024
-0.106652
-0.120634
-0.133341
-0.144473
-0.153836
-0.161318
-0.166862
-0.170449
-0.172125
-0.171986
-0.170075
-0.166472
-0.161262
-0.154547
-0.146451
-0.137146
-0.126879
-0.115995
-0.10496
-0.0943434
-0.0847658
-0.0767863
-0.0707663
-0.0667567
-0.0644795
-0.0634372
-0.0630958
-0.0630409
-0.0630418
-0.0630224
-0.062978
-0.0629314
-0.0628864
-0.0628415
0.0073505
0.00670727
0.00578661
0.0046014
0.0030227
0.000771452
-0.00260444
-0.00764574
-0.0148516
-0.0245387
-0.0367423
-0.051196
-0.0673836
-0.0846338
-0.102226
-0.119481
-0.135825
-0.150819
-0.164163
-0.175675
-0.185271
-0.192929
-0.198657
-0.202474
-0.204441
-0.204683
-0.203237
-0.200144
-0.195439
-0.189138
-0.181252
-0.171796
-0.160818
-0.148447
-0.134958
-0.120829
-0.106769
-0.0936697
-0.0824523
-0.0738246
-0.0680371
-0.0647894
-0.0633803
-0.0630188
-0.063094
-0.0632757
-0.063456
-0.0635941
-0.0636692
-0.0636839
0.00897889
0.00823967
0.00713711
0.00557217
0.00324753
-0.000269916
-0.00555542
-0.0131909
-0.0235933
-0.0368748
-0.0527888
-0.0707743
-0.0900657
-0.109827
-0.129274
-0.147755
-0.164796
-0.180095
-0.19349
-0.204922
-0.214401
-0.221973
-0.227686
-0.231578
-0.233715
-0.234224
-0.233137
-0.230486
-0.226287
-0.220533
-0.213187
-0.204179
-0.193423
-0.180852
-0.166482
-0.150511
-0.133433
-0.116114
-0.0997628
-0.0857178
-0.0750496
-0.0681525
-0.064583
-0.0633141
-0.0632415
-0.0635847
-0.0639834
-0.0643192
-0.0645243
-0.0645991
0.0101108
0.00928043
0.00792885
0.00580689
0.00242976
-0.00277884
-0.0104665
-0.0211613
-0.0350858
-0.0520541
-0.0714905
-0.0925462
-0.114263
-0.135732
-0.156207
-0.175161
-0.192279
-0.207417
-0.220546
-0.231702
-0.240954
-0.248374
-0.254028
-0.257957
-0.26021
-0.260901
-0.260054
-0.257702
-0.253863
-0.248537
-0.24169
-0.233244
-0.223072
-0.211009
-0.196885
-0.180611
-0.162306
-0.142487
-0.122203
-0.103032
-0.0867699
-0.0748314
-0.0676345
-0.0644164
-0.0636999
-0.064066
-0.0646614
-0.0651893
-0.0655264
-0.0656646
0.0103174
0.00938172
0.00768999
0.00481223
8.06577e-05
-0.00718724
-0.0176338
-0.0316291
-0.0491057
-0.0695267
-0.0919907
-0.11542
-0.138761
-0.161143
-0.181957
-0.200854
-0.217696
-0.23248
-0.245272
-0.25616
-0.26523
-0.272556
-0.278196
-0.282178
-0.284538
-0.285366
-0.284673
-0.282492
-0.27885
-0.273759
-0.26721
-0.259155
-0.249495
-0.238066
-0.224642
-0.208967
-0.190848
-0.170339
-0.14799
-0.125085
-0.103639
-0.085943
-0.0736751
-0.067061
-0.0647842
-0.0648287
-0.0655731
-0.0662851
-0.0667625
-0.0669759
0.00915435
0.00808788
0.0059543
0.00213364
-0.00419837
-0.0137732
-0.0271398
-0.0444185
-0.0651928
-0.0885704
-0.113377
-0.138402
-0.162612
-0.18527
-0.205961
-0.224526
-0.240979
-0.255412
-0.267938
-0.278657
-0.287647
-0.294964
-0.300648
-0.304716
-0.307184
-0.308126
-0.307542
-0.305461
-0.301911
-0.296911
-0.290472
-0.282583
-0.273195
-0.262202
-0.249418
-0.23457
-0.217324
-0.197393
-0.174768
-0.15008
-0.124932
-0.101879
-0.0837173
-0.0721983
-0.0670129
-0.0660384
-0.0667692
-0.0676735
-0.0683156
-0.0686294
0.00624534
0.00501574
0.00234815
-0.00255694
-0.0106371
-0.0226063
-0.0388391
-0.0591439
-0.08274
-0.108421
-0.134828
-0.160728
-0.185204
-0.207715
-0.228046
-0.246203
-0.2623
-0.276475
-0.288847
-0.299502
-0.308495
-0.315862
-0.321627
-0.325793
-0.328366
-0.329408
-0.328916
-0.326909
-0.323411
-0.318441
-0.312017
-0.304148
-0.294828
-0.284012
-0.271597
-0.257388
-0.241071
-0.222233
-0.200491
-0.175799
-0.148946
-0.122002
-0.0981955
-0.0807538
-0.0711261
-0.0680059
-0.0683224
-0.0694157
-0.0702584
-0.070715
0.00135179
-7.15423e-05
-0.00333669
-0.00939759
-0.0192531
-0.0335361
-0.0523876
-0.0752785
-0.10109
-0.128376
-0.155695
-0.18189
-0.206221
-0.228357
-0.248259
-0.266044
-0.281874
-0.295894
-0.308203
-0.318861
-0.327898
-0.335334
-0.341182
-0.345439
-0.348103
-0.349232
-0.348823
-0.346887
-0.34344
-0.338498
-0.332076
-0.324187
-0.314841
-0.304038
-0.291748
-0.277875
-0.262215
-0.24441
-0.223957
-0.200375
-0.173625
-0.144803
-0.116679
-0.0932641
-0.0779506
-0.0712554
-0.0703974
-0.0715772
-0.0726679
-0.0733235
-0.00557875
-0.00721688
-0.0111026
-0.0183111
-0.0298498
-0.0462207
-0.0673
-0.092232
-0.119617
-0.147857
-0.175523
-0.201599
-0.225549
-0.247227
-0.266723
-0.284212
-0.299865
-0.313804
-0.326099
-0.336781
-0.345865
-0.353359
-0.359272
-0.363599
-0.366336
-0.367535
-0.367201
-0.365336
-0.361952
-0.357058
-0.350665
-0.342779
-0.333413
-0.32258
-0.310289
-0.296526
-0.281207
-0.264111
-0.24482
-0.222718
-0.197224
-0.16841
-0.137941
-0.109585
-0.0881197
-0.0764624
-0.0733127
-0.0742603
-0.0756579
-0.0765613
-0.0143982
-0.016258
-0.020744
-0.0290184
-0.0420503
-0.0601802
-0.0830174
-0.109418
-0.137775
-0.166425
-0.194021
-0.219724
-0.243186
-0.264408
-0.283557
-0.300824
-0.31636
-0.330254
-0.342546
-0.353247
-0.36236
-0.369888
-0.375841
-0.380216
-0.383006
-0.384261
-0.383991
-0.382193
-0.378877
-0.374049
-0.367714
-0.359874
-0.350533
-0.339704
-0.327405
-0.31366
-0.29847
-0.281759
-0.263275
-0.242505
-0.218683
-0.191163
-0.160336
-0.128855
-0.101791
-0.0842704
-0.0775275
-0.0776258
-0.0793521
-0.0805401
-0.0247784
-0.026851
-0.0318797
-0.0410824
-0.0553527
-0.0748602
-0.098969
-0.126303
-0.155122
-0.183769
-0.211022
-0.236218
-0.25917
-0.279978
-0.298839
-0.315937
-0.331386
-0.345243
-0.357522
-0.368223
-0.377341
-0.384882
-0.390854
-0.395258
-0.398087
-0.399383
-0.399166
-0.397429
-0.394179
-0.389423
-0.383162
-0.375397
-0.366128
-0.355358
-0.343101
-0.329385
-0.314251
-0.297718
-0.279705
-0.259899
-0.237634
-0.211965
-0.182282
-0.149725
-0.118519
-0.095056
-0.0835471
-0.0819036
-0.0838558
-0.0853729
-0.0362579
-0.0385195
-0.0440064
-0.0539667
-0.0691924
-0.0896906
-0.114618
-0.142428
-0.171314
-0.199675
-0.22643
-0.251074
-0.273539
-0.293982
-0.312606
-0.329563
-0.344935
-0.358746
-0.370997
-0.381677
-0.390783
-0.398318
-0.404295
-0.408716
-0.411573
-0.4129
-0.412727
-0.411041
-0.407851
-0.403163
-0.39698
-0.389303
-0.38013
-0.369462
-0.357302
-0.343672
-0.328613
-0.312188
-0.294432
-0.275234
-0.254166
-0.230335
-0.202609
-0.170734
-0.137335
-0.108762
-0.0917992
-0.0873868
-0.0892598
-0.091179
-0.048301
-0.0507153
-0.0565608
-0.0670976
-0.0829992
-0.104132
-0.129491
-0.157419
-0.186095
-0.214
-0.24019
-0.264288
-0.286311
-0.306438
-0.324858
-0.341689
-0.35698
-0.370735
-0.382941
-0.393587
-0.402668
-0.41019
-0.416163
-0.420593
-0.42347
-0.424819
-0.424682
-0.423039
-0.4199
-0.415272
-0.409162
-0.401571
-0.392502
-0.381955
-0.369929
-0.356437
-0.341509
-0.325211
-0.30763
-0.288804
-0.268555
-0.246244
-0.220666
-0.190642
-0.156997
-0.124863
-0.102481
-0.0943549
-0.0956561
-0.0980703
-0.0603578
-0.0628777
-0.0689782
-0.079917
-0.096241
-0.117705
-0.14319
-0.170979
-0.199271
-0.22664
-0.25226
-0.275853
-0.297483
-0.317336
-0.335575
-0.352286
-0.367492
-0.381181
-0.393334
-0.403939
-0.41299
-0.420493
-0.426459
-0.430893
-0.433786
-0.43515
-0.435043
-0.433434
-0.430337
-0.425761
-0.419713
-0.4122
-0.403229
-0.392802
-0.380923
-0.367599
-0.35285
-0.336729
-0.31933
-0.30077
-0.281064
-0.259882
-0.236245
-0.208601
-0.176271
-0.142458
-0.115446
-0.102999
-0.103153
-0.106104
-0.0719141
-0.0744887
-0.0807391
-0.0919229
-0.108454
-0.130007
-0.155395
-0.182879
-0.210699
-0.237518
-0.262604
-0.285746
-0.307036
-0.32665
-0.344725
-0.361321
-0.37644
-0.39006
-0.402158
-0.412721
-0.421744
-0.429229
-0.435186
-0.439623
-0.442528
-0.443902
-0.443818
-0.442236
-0.439172
-0.434636
-0.428639
-0.421191
-0.412304
-0.401987
-0.390248
-0.377097
-0.362551
-0.346648
-0.329473
-0.311162
-0.291849
-0.271471
-0.249401
-0.224163
-0.194137
-0.160458
-0.130178
-0.113333
-0.111807
-0.115219
-0.0825517
-0.0850869
-0.0914034
-0.102694
-0.119256
-0.140718
-0.165858
-0.192945
-0.22027
-0.24657
-0.271182
-0.293938
-0.314938
-0.334346
-0.352274
-0.368762
-0.383798
-0.397352
-0.4094
-0.419927
-0.428926
-0.436397
-0.442348
-0.446786
-0.449701
-0.45108
-0.451014
-0.449452
-0.446412
-0.441905
-0.435944
-0.428545
-0.419723
-0.409496
-0.39788
-0.384889
-0.370544
-0.354878
-0.33796
-0.319922
-0.300949
-0.281159
-0.260281
-0.237177
-0.20988
-0.177777
-0.145871
-0.125112
-0.12152
-0.125175
-0.0919533
-0.0942955
-0.100612
-0.111902
-0.128357
-0.149596
-0.174395
-0.201051
-0.227903
-0.253744
-0.277955
-0.300391
-0.321151
-0.340384
-0.358185
-0.374577
-0.389539
-0.403038
-0.415046
-0.425547
-0.434531
-0.441996
-0.447945
-0.452386
-0.45531
-0.456696
-0.45664
-0.455091
-0.452064
-0.447572
-0.441632
-0.434262
-0.425484
-0.415322
-0.4038
-0.390944
-0.376778
-0.36134
-0.34469
-0.326948
-0.308308
-0.288993
-0.269012
-0.247655
-0.223075
-0.193481
-0.161554
-0.137811
-0.13195
-0.135551
-0.0998709
-0.101885
-0.108093
-0.119306
-0.135552
-0.156473
-0.180879
-0.207106
-0.233535
-0.258993
-0.282884
-0.305068
-0.325638
-0.344729
-0.362424
-0.378737
-0.393642
-0.407101
-0.419085
-0.429573
-0.438555
-0.446025
-0.451981
-0.456429
-0.459361
-0.460759
-0.460708
-0.459167
-0.456142
-0.451651
-0.445712
-0.438348
-0.429586
-0.419458
-0.407996
-0.395236
-0.381214
-0.365972
-0.349573
-0.332128
-0.313825
-0.294932
-0.275647
-0.255661
-0.233516
-0.206866
-0.176246
-0.150679
-0.142554
-0.145808
-0.106138
-0.107736
-0.113692
-0.124753
-0.140722
-0.161265
-0.185253
-0.211071
-0.237135
-0.26229
-0.28594
-0.307937
-0.328362
-0.347344
-0.364958
-0.381213
-0.396081
-0.409522
-0.421501
-0.431997
-0.440993
-0.448481
-0.454456
-0.458918
-0.461862
-0.463271
-0.463223
-0.461687
-0.458654
-0.45415
-0.448194
-0.440812
-0.432035
-0.421904
-0.41046
-0.39775
-0.383821
-0.368727
-0.352536
-0.335359
-0.317379
-0.298877
-0.28016
-0.261236
-0.24113
-0.217458
-0.189078
-0.162872
-0.152697
-0.155376
-0.110689
-0.111812
-0.11737
-0.128184
-0.143815
-0.163928
-0.187474
-0.2129
-0.238656
-0.263589
-0.287084
-0.30897
-0.32931
-0.348224
-0.365786
-0.382009
-0.396864
-0.410309
-0.422307
-0.432829
-0.441858
-0.449378
-0.45538
-0.45986
-0.462812
-0.464225
-0.464174
-0.462641
-0.459593
-0.455061
-0.449069
-0.441643
-0.432821
-0.422649
-0.41118
-0.39847
-0.384577
-0.369567
-0.35352
-0.336555
-0.318855
-0.300705
-0.28247
-0.264372
-0.245901
-0.224978
-0.199362
-0.173573
-0.161748
-0.163714
-0.113549
-0.114169
-0.119192
-0.129647
-0.144875
-0.164503
-0.187569
-0.212596
-0.238074
-0.262842
-0.286249
-0.308087
-0.328396
-0.347286
-0.364836
-0.381061
-0.395936
-0.409419
-0.421468
-0.432052
-0.441145
-0.448729
-0.45479
-0.459319
-0.462309
-0.463744
-0.463669
-0.462106
-0.459007
-0.45441
-0.44834
-0.440831
-0.431927
-0.421676
-0.410136
-0.397372
-0.383452
-0.368455
-0.352478
-0.335647
-0.318156
-0.300297
-0.282465
-0.265018
-0.247821
-0.229276
-0.206605
-0.182072
-0.169136
-0.170341
-0.114829
-0.114945
-0.119313
-0.129269
-0.144009
-0.163083
-0.185612
-0.210214
-0.235418
-0.260052
-0.283423
-0.305269
-0.325599
-0.344511
-0.362085
-0.378344
-0.39327
-0.406821
-0.418953
-0.429627
-0.438813
-0.446485
-0.452626
-0.457221
-0.460262
-0.461736
-0.461663
-0.46008
-0.456932
-0.452258
-0.446092
-0.438465
-0.429423
-0.419025
-0.407337
-0.394439
-0.380414
-0.365353
-0.349358
-0.332571
-0.315198
-0.297544
-0.280028
-0.26309
-0.24687
-0.230286
-0.210485
-0.187798
-0.174365
-0.174839
-0.114704
-0.114354
-0.117969
-0.127254
-0.141383
-0.159807
-0.181715
-0.205826
-0.230726
-0.255233
-0.278598
-0.3005
-0.320902
-0.339882
-0.35752
-0.373852
-0.388865
-0.402519
-0.414768
-0.425567
-0.434879
-0.442672
-0.448921
-0.453606
-0.456714
-0.458234
-0.458168
-0.456565
-0.453358
-0.448591
-0.442304
-0.434529
-0.425315
-0.414727
-0.402838
-0.389734
-0.375507
-0.360263
-0.344129
-0.32727
-0.309908
-0.292354
-0.275052
-0.258494
-0.243013
-0.227979
-0.21081
-0.190319
-0.177007
-0.176844
-0.113403
-0.112658
-0.115459
-0.123878
-0.137226
-0.154867
-0.176028
-0.199537
-0.224055
-0.248397
-0.271759
-0.293746
-0.314263
-0.33336
-0.351111
-0.36756
-0.382701
-0.396501
-0.40891
-0.419876
-0.429354
-0.437305
-0.443695
-0.448498
-0.451696
-0.453273
-0.453221
-0.451596
-0.448326
-0.443452
-0.437018
-0.429061
-0.419631
-0.408798
-0.396641
-0.383254
-0.368739
-0.353216
-0.336826
-0.319752
-0.302245
-0.284656
-0.267447
-0.25114
-0.236199
-0.222348
-0.207482
-0.189327
-0.176696
-0.17603
-0.11119
-0.110148
-0.112119
-0.119476
-0.131829
-0.148505
-0.168748
-0.191491
-0.215486
-0.239571
-0.26289
-0.284967
-0.305633
-0.324896
-0.342814
-0.359432
-0.374754
-0.388748
-0.401364
-0.412545
-0.422236
-0.430387
-0.436958
-0.441913
-0.445227
-0.446882
-0.446861
-0.445215
-0.44188
-0.436888
-0.430284
-0.422111
-0.412421
-0.401286
-0.388792
-0.375037
-0.360135
-0.344218
-0.327444
-0.31002
-0.292225
-0.27444
-0.25717
-0.24097
-0.226387
-0.213395
-0.200462
-0.184616
-0.173107
-0.1721
-0.108342
-0.107117
-0.108297
-0.114424
-0.125531
-0.14101
-0.160112
-0.181866
-0.205136
-0.228807
-0.251989
-0.274123
-0.294956
-0.31443
-0.332575
-0.349426
-0.36499
-0.379239
-0.392121
-0.403572
-0.413529
-0.421931
-0.428728
-0.433876
-0.437342
-0.4391
-0.439132
-0.437471
-0.434075
-0.428956
-0.422164
-0.413744
-0.403751
-0.392256
-0.379352
-0.365141
-0.349747
-0.333313
-0.316018
-0.298091
-0.279847
-0.261706
-0.244218
-0.227976
-0.213573
-0.201139
-0.189759
-0.176065
-0.165955
-0.164772
-0.105127
-0.103834
-0.10431
-0.109105
-0.118713
-0.132713
-0.150398
-0.170883
-0.193157
-0.216184
-0.239069
-0.26118
-0.282166
-0.301889
-0.320327
-0.337488
-0.353374
-0.367953
-0.381172
-0.392961
-0.403247
-0.411961
-0.419039
-0.424429
-0.428087
-0.429982
-0.430091
-0.428432
-0.42498
-0.419732
-0.412736
-0.404041
-0.393702
-0.381792
-0.368404
-0.353647
-0.337652
-0.320573
-0.30261
-0.284021
-0.265159
-0.24649
-0.228615
-0.212178
-0.197813
-0.185654
-0.175431
-0.163634
-0.154992
-0.153774
-0.101781
-0.100515
-0.100422
-0.103872
-0.111769
-0.123982
-0.139917
-0.158793
-0.179732
-0.20181
-0.224164
-0.246108
-0.267197
-0.287189
-0.305984
-0.323547
-0.339851
-0.354858
-0.368505
-0.380717
-0.391412
-0.400508
-0.407932
-0.413621
-0.417522
-0.419595
-0.419813
-0.418178
-0.414683
-0.409307
-0.402097
-0.393102
-0.382378
-0.369998
-0.356053
-0.340659
-0.32395
-0.306098
-0.28732
-0.267908
-0.248256
-0.228885
-0.210451
-0.193652
-0.179178
-0.167087
-0.157607
-0.147363
-0.14003
-0.138848
-0.0984899
-0.0973194
-0.0968183
-0.0990177
-0.105076
-0.115202
-0.129013
-0.145879
-0.165078
-0.185829
-0.207337
-0.228902
-0.249986
-0.270235
-0.289448
-0.307511
-0.324354
-0.33991
-0.354102
-0.366845
-0.378045
-0.387612
-0.39546
-0.401517
-0.40572
-0.408021
-0.408388
-0.406808
-0.403288
-0.397791
-0.39036
-0.381046
-0.369902
-0.356999
-0.342429
-0.326307
-0.308777
-0.290023
-0.270288
-0.249897
-0.229292
-0.209052
-0.189895
-0.17257
-0.157804
-0.145644
-0.136485
-0.127374
-0.120967
-0.119764
-0.0953826
-0.0943482
-0.0936084
-0.0947424
-0.0989549
-0.106751
-0.118047
-0.13245
-0.149443
-0.168418
-0.188695
-0.20959
-0.230498
-0.25095
-0.270616
-0.289281
-0.306797
-0.32305
-0.337933
-0.351341
-0.36317
-0.373315
-0.381683
-0.388191
-0.392767
-0.395356
-0.395919
-0.394433
-0.390912
-0.385308
-0.377658
-0.368011
-0.356417
-0.342945
-0.327685
-0.310755
-0.292304
-0.272533
-0.251709
-0.230199
-0.208494
-0.187235
-0.167202
-0.149191
-0.133958
-0.121557
-0.112329
-0.103852
-0.0977928
-0.0962841
-0.0925373
-0.0916572
-0.0908321
-0.0911461
-0.0936311
-0.0989563
-0.107372
-0.118828
-0.133096
-0.149792
-0.168388
-0.188256
-0.208751
-0.229294
-0.249417
-0.268769
-0.287098
-0.304213
-0.319958
-0.334196
-0.346802
-0.35766
-0.366664
-0.373723
-0.378757
-0.381706
-0.382524
-0.38118
-0.377688
-0.372
-0.364138
-0.354151
-0.342088
-0.328011
-0.31201
-0.294204
-0.274752
-0.25387
-0.231853
-0.20911
-0.186186
-0.163784
-0.142741
-0.123894
-0.108015
-0.0951162
-0.0854946
-0.0770219
-0.0705573
-0.0680684
-0.0899862
-0.0892688
-0.088481
-0.0882332
-0.0892059
-0.0920413
-0.0972846
-0.105321
-0.11632
-0.130199
-0.146625
-0.165062
-0.18485
-0.205316
-0.225847
-0.245942
-0.26521
-0.283356
-0.300149
-0.315403
-0.328962
-0.340689
-0.350468
-0.358197
-0.363791
-0.367185
-0.368328
-0.367185
-0.363761
-0.358019
-0.349966
-0.339645
-0.327104
-0.312404
-0.295633
-0.276912
-0.256409
-0.234358
-0.211084
-0.187037
-0.162816
-0.139179
-0.117013
-0.0971807
-0.080445
-0.0667408
-0.0564101
-0.0471532
-0.0394626
-0.0347158
-0.0877207
-0.0871789
-0.0865186
-0.0859325
-0.0856409
-0.0860733
-0.0879665
-0.092179
-0.0993905
-0.109918
-0.123681
-0.140265
-0.159022
-0.179196
-0.200038
-0.220882
-0.241182
-0.260509
-0.278531
-0.294993
-0.309692
-0.322464
-0.333173
-0.341708
-0.34798
-0.351917
-0.353467
-0.352593
-0.349291
-0.34354
-0.335329
-0.324698
-0.311695
-0.296382
-0.278844
-0.259208
-0.237652
-0.214428
-0.189892
-0.164528
-0.138982
-0.114055
-0.0906614
-0.0696704
-0.0518177
-0.0369594
-0.0255443
-0.0145739
-0.00514646
0.00383307
-0.0856842
-0.0853481
-0.0848849
-0.084112
-0.0827567
-0.0809226
-0.0794149
-0.0795357
-0.0825457
-0.0892567
-0.0999114
-0.114251
-0.131656
-0.151306
-0.172319
-0.193869
-0.21524
-0.235853
-0.255255
-0.273099
-0.289117
-0.303107
-0.314907
-0.324394
-0.331469
-0.33606
-0.338111
-0.337588
-0.334477
-0.328775
-0.32046
-0.309568
-0.296151
-0.280272
-0.262019
-0.241525
-0.21898
-0.194653
-0.168922
-0.142301
-0.11546
-0.0892141
-0.0644727
-0.0420796
-0.0227236
-0.00621907
0.00686867
0.0206174
0.0315494
0.0473901
-0.0837557
-0.0836802
-0.0834724
-0.082568
-0.080235
-0.0762489
-0.071403
-0.0673597
-0.0659539
-0.068548
-0.07577
-0.0875591
-0.103345
-0.122253
-0.143282
-0.16545
-0.187874
-0.209816
-0.230689
-0.250039
-0.26752
-0.282877
-0.295914
-0.306488
-0.314493
-0.319849
-0.322504
-0.322422
-0.319588
-0.314011
-0.305672
-0.294602
-0.280858
-0.26451
-0.245653
-0.224428
-0.201037
-0.175761
-0.148991
-0.121248
-0.0931948
-0.0656168
-0.039367
-0.01521
0.00625414
0.0252686
0.0412372
0.05922
0.0715678
0.0980402
-0.0817411
-0.0819927
-0.0820731
-0.0809822
-0.0776155
-0.0715293
-0.0634984
-0.0554491
-0.0497024
-0.0481497
-0.0518307
-0.0609197
-0.0749218
-0.092925
-0.113825
-0.136496
-0.159899
-0.183144
-0.205503
-0.22641
-0.245434
-0.262252
-0.27663
-0.288398
-0.297437
-0.303662
-0.307018
-0.307474
-0.305014
-0.299654
-0.291396
-0.280266
-0.266329
-0.249665
-0.230381
-0.208627
-0.184614
-0.158629
-0.131055
-0.102389
-0.073239
-0.0443064
-0.0163223
0.0100965
0.0345158
0.0573656
0.0782541
0.103026
0.120037
0.163097
-0.0794271
-0.080034
-0.0803996
-0.0789578
-0.0743581
-0.0661496
-0.0551754
-0.043523
-0.0338503
-0.0284721
-0.0288062
-0.0352735
-0.0474816
-0.0645082
-0.0851694
-0.10822
-0.132485
-0.156933
-0.180711
-0.203138
-0.223694
-0.241991
-0.257746
-0.27076
-0.280894
-0.288058
-0.292195
-0.293278
-0.291295
-0.286261
-0.278204
-0.26716
-0.253204
-0.236429
-0.216955
-0.194938
-0.170591
-0.144192
-0.116092
-0.0867212
-0.0565833
-0.0262239
0.00382322
0.0331719
0.0616414
0.0899812
0.118197
0.153381
0.183169
0.247874
-0.0769183
-0.0777658
-0.0782616
-0.0762141
-0.070164
-0.0597386
-0.0460771
-0.0314301
-0.0185642
-0.0100384
-0.00755594
-0.0117521
-0.0223477
-0.0384427
-0.0588111
-0.0821242
-0.1071
-0.132593
-0.157637
-0.181455
-0.20344
-0.223141
-0.240225
-0.254461
-0.265692
-0.273816
-0.278777
-0.280549
-0.279132
-0.274543
-0.266821
-0.256014
-0.242219
-0.225552
-0.20614
-0.18414
-0.159753
-0.133225
-0.104848
-0.0749504
-0.0438743
-0.0119353
0.0206391
0.0538428
0.0879205
0.124064
0.162586
0.212246
0.259758
0.338344
-0.0754998
-0.076196
-0.0763211
-0.0730943
-0.0652138
-0.0525648
-0.0364928
-0.0195072
-0.00438339
0.00637927
0.0108852
0.00835504
-0.00100926
-0.016346
-0.0364313
-0.0598991
-0.0854015
-0.111713
-0.137786
-0.162761
-0.185965
-0.206886
-0.22515
-0.240494
-0.25274
-0.261777
-0.267546
-0.270023
-0.269217
-0.26516
-0.257907
-0.247502
-0.234029
-0.217632
-0.198461
-0.176673
-0.152443
-0.125968
-0.0974623
-0.0671232
-0.0350908
-0.00137167
0.0342665
0.0724909
0.114469
0.162532
0.217749
0.28888
0.34926
0.424246
-0.0796754
-0.0789734
-0.077361
-0.0717489
-0.061202
-0.0459674
-0.0276499
-0.00885066
0.00765222
0.0196489
0.0253764
0.0238361
0.0152167
0.000357426
-0.0195424
-0.0431148
-0.0689839
-0.0958809
-0.122705
-0.148544
-0.172675
-0.194542
-0.213736
-0.229968
-0.243044
-0.252843
-0.259302
-0.2624
-0.262149
-0.25859
-0.251785
-0.241823
-0.228781
-0.212741
-0.193858
-0.17231
-0.148258
-0.121855
-0.0932327
-0.0624513
-0.0294258
0.0062096
0.0453044
0.0895739
0.141938
0.207619
0.291416
0.403349
0.495632
0.603231
-0.103106
-0.0952821
-0.0868324
-0.0760421
-0.0616799
-0.0433535
-0.0227078
-0.00232016
0.0153633
0.0281332
0.0343024
0.0331858
0.0249757
0.0104628
-0.00919913
-0.0326763
-0.0586086
-0.0857227
-0.112899
-0.139196
-0.16386
-0.186305
-0.206094
-0.222916
-0.236562
-0.2469
-0.253861
-0.25742
-0.257593
-0.254419
-0.247966
-0.238318
-0.225572
-0.209838
-0.19124
-0.169916
-0.146015
-0.119659
-0.090913
-0.0597113
-0.0257515
0.0117108
0.0541914
0.104612
0.168103
0.25416
0.37546
0.555527
0.76752
1.1077
-0.189937
-0.112178
-0.0805872
-0.0713571
-0.058081
-0.0387133
-0.0170259
0.00396792
0.0217609
0.0341798
0.0398215
0.0382045
0.029602
0.0148335
-0.00495429
-0.028464
-0.0543813
-0.0814719
-0.108642
-0.134968
-0.159697
-0.182242
-0.202162
-0.21914
-0.232957
-0.243476
-0.250625
-0.254374
-0.254737
-0.251753
-0.245487
-0.236023
-0.22346
-0.207907
-0.189482
-0.168318
-0.144547
-0.118264
-0.089474
-0.058017
-0.023425
0.0153266
0.0602305
0.115031
0.186288
0.28635
0.435107
0.680193
1.07923
1.82842
)
;

boundaryField
{
    movingWall
    {
        type            zeroGradient;
    }
    fixedWalls
    {
        type            zeroGradient;
    }
    frontAndBack
    {
        type            empty;
    }
}


// ************************************************************************* //
