/*--------------------------------*- C++ -*----------------------------------*\
  =========                 |
  \\      /  F ield         | OpenFOAM: The Open Source CFD Toolbox
   \\    /   O peration     | Website:  https://openfoam.org
    \\  /    A nd           | Version:  7
     \\/     M anipulation  |
\*---------------------------------------------------------------------------*/
FoamFile
{
    version     2.0;
    format      ascii;
    class       surfaceScalarField;
    location    "750";
    object      phi;
}
// * * * * * * * * * * * * * * * * * * * * * * * * * * * * * * * * * * * * * //

dimensions      [0 3 -1 0 0 0 0];

internalField   nonuniform List<scalar> 
4900
(
1.70238e-06
-1.70245e-06
6.22481e-06
-4.52234e-06
1.17179e-05
-5.49339e-06
1.65042e-05
-4.78659e-06
1.97513e-05
-3.24749e-06
2.139e-05
-1.63887e-06
2.17679e-05
-3.78175e-07
2.12617e-05
5.06032e-07
2.00143e-05
1.24725e-06
1.78614e-05
2.15276e-06
1.44095e-05
3.45172e-06
9.17163e-06
5.23776e-06
1.65636e-06
7.51513e-06
-8.58848e-06
1.02447e-05
-2.19125e-05
1.33239e-05
-3.84786e-05
1.6566e-05
-5.8191e-05
1.97123e-05
-8.06141e-05
2.2423e-05
-0.000104909
2.42951e-05
-0.000129819
2.49099e-05
-0.000153716
2.38969e-05
-0.000174713
2.0997e-05
-0.000190828
1.61149e-05
-0.000200185
9.35711e-06
-0.000201263
1.07797e-06
-0.000193121
-8.14283e-06
-0.000175512
-1.76087e-05
-0.000148958
-2.65544e-05
-0.000114751
-3.42069e-05
-7.49169e-05
-3.98339e-05
-3.21077e-05
-4.28094e-05
1.05619e-05
-4.26696e-05
4.98344e-05
-3.92726e-05
8.28568e-05
-3.30225e-05
0.000107452
-2.45951e-05
0.000122353
-1.49017e-05
0.000127446
-5.09233e-06
0.000123809
3.63702e-06
0.000113439
1.03697e-05
9.87281e-05
1.47107e-05
8.20198e-05
1.67082e-05
6.52525e-05
1.67673e-05
4.97725e-05
1.54799e-05
3.63149e-05
1.34576e-05
2.51076e-05
1.12071e-05
1.60434e-05
9.0641e-06
8.89584e-06
7.14752e-06
3.59569e-06
5.30007e-06
5.05662e-07
3.08994e-06
5.05646e-07
4.47887e-06
-6.18106e-06
1.38537e-05
-1.38975e-05
2.43146e-05
-1.5955e-05
3.29008e-05
-1.33736e-05
3.80007e-05
-8.34807e-06
3.9224e-05
-2.86274e-06
3.68523e-05
1.99298e-06
3.11921e-05
6.16579e-06
2.21346e-05
1.03043e-05
9.05127e-06
1.52357e-05
-9.05566e-06
2.15583e-05
-3.32873e-05
2.9469e-05
-6.45434e-05
3.8771e-05
-0.000103264
4.89646e-05
-0.000149217
5.92776e-05
-0.000201344
6.86925e-05
-0.000257696
7.60639e-05
-0.000315562
8.02885e-05
-0.000371743
8.04758e-05
-0.000422903
7.60698e-05
-0.000465904
6.68981e-05
-0.000498068
5.31606e-05
-0.000517339
3.53862e-05
-0.000522377
1.43945e-05
-0.000512636
-8.66233e-06
-0.000488212
-3.25675e-05
-0.000449738
-5.60829e-05
-0.000398416
-7.78759e-05
-0.000336077
-9.65463e-05
-0.000265194
-0.000110717
-0.000188857
-0.000119147
-0.000110639
-0.000120888
-3.44227e-05
-0.000115489
3.57184e-05
-0.000103164
9.60912e-05
-8.4968e-05
0.000143879
-6.26902e-05
0.000177159
-3.83722e-05
0.000195139
-1.43431e-05
0.000198411
7.09759e-06
0.000189071
2.40507e-05
0.000170266
3.55129e-05
0.000145587
4.14459e-05
0.000118444
4.26225e-05
9.16042e-05
4.02975e-05
6.69347e-05
3.58765e-05
4.54241e-05
3.05745e-05
2.74633e-05
2.5108e-05
1.33375e-05
1.94257e-05
3.7563e-06
1.2671e-05
4.26192e-06
5.98819e-06
-1.21693e-05
1.73389e-05
-2.52484e-05
2.88015e-05
-2.74181e-05
3.68186e-05
-2.13913e-05
3.95289e-05
-1.1059e-05
3.63439e-05
3.21761e-07
2.72001e-05
1.11363e-05
1.18896e-05
2.14759e-05
-1.03534e-05
3.25469e-05
-4.08067e-05
4.56886e-05
-8.083e-05
6.15813e-05
-0.000131346
7.99852e-05
-0.00019242
9.98444e-05
-0.000262945
0.00011949
-0.000340574
0.000136906
-0.000421947
0.000150066
-0.000503147
0.000157264
-0.000580221
0.000157362
-0.000649621
0.000149876
-0.000708488
0.000134937
-0.000754739
0.000113148
-0.000787016
8.54379e-05
-0.000804557
5.29272e-05
-0.000807014
1.68514e-05
-0.000794255
-2.14223e-05
-0.00076629
-6.0532e-05
-0.00072343
-9.8943e-05
-0.000666411
-0.000134895
-0.000596472
-0.000166485
-0.000515456
-0.000191733
-0.000425881
-0.000208722
-0.000330944
-0.000215825
-0.000234432
-0.000212001
-0.00014048
-0.000197116
-5.33158e-05
-0.000172132
2.30948e-05
-0.000139101
8.57772e-05
-0.000101055
0.000132939
-6.15049e-05
0.000163612
-2.35762e-05
0.00017794
9.72308e-06
0.000177457
3.59952e-05
0.000164966
5.39367e-05
0.000144014
6.35743e-05
0.000118283
6.60286e-05
9.10336e-05
6.31258e-05
6.47409e-05
5.68671e-05
4.1065e-05
4.87838e-05
2.12082e-05
3.92822e-05
6.60744e-06
2.72716e-05
1.08693e-05
6.50858e-06
-1.86777e-05
1.75957e-05
-3.63357e-05
2.69469e-05
-3.67697e-05
3.07479e-05
-2.51927e-05
2.7193e-05
-7.50469e-06
1.5589e-05
1.19253e-05
-4.60033e-06
3.13252e-05
-3.43899e-05
5.12651e-05
-7.53034e-05
7.34601e-05
-0.000128818
9.92024e-05
-0.000195661
0.000128425
-0.000275253
0.000159576
-0.000365463
0.000190054
-0.000462801
0.000216827
-0.000562952
0.000237057
-0.000661467
0.000248581
-0.00075437
0.000250167
-0.000838522
0.000241514
-0.000911716
0.000223071
-0.000972552
0.000195773
-0.0010202
0.000160798
-0.00105417
0.000119407
-0.00107412
7.28746e-05
-0.00107973
2.24605e-05
-0.0010706
-3.05482e-05
-0.00104643
-8.47037e-05
-0.00100707
-0.000138306
-0.000952587
-0.000189376
-0.000883396
-0.000235676
-0.000800418
-0.000274711
-0.000705287
-0.000303853
-0.000600496
-0.000320616
-0.00048946
-0.000323037
-0.000376448
-0.000310128
-0.000266294
-0.000282286
-0.000163853
-0.000241542
-7.34432e-05
-0.000191464
1.66035e-06
-0.000136609
5.98819e-05
-8.17979e-05
0.000100918
-3.13129e-05
0.000125023
1.18899e-05
0.000133487
4.54726e-05
0.000128814
6.82469e-05
0.0001143
8.05424e-05
9.35275e-05
8.38983e-05
6.98584e-05
8.05359e-05
4.61101e-05
7.25319e-05
2.46336e-05
6.07585e-05
7.92751e-06
4.39775e-05
1.87968e-05
6.20427e-06
-2.4882e-05
1.48912e-05
-4.50228e-05
1.91957e-05
-4.10744e-05
1.54575e-05
-2.1455e-05
2.1302e-06
5.82219e-06
-2.16709e-05
3.5726e-05
-5.71235e-05
6.67775e-05
-0.000105954
0.000100096
-0.000169787
0.000137293
-0.000249182
0.000178597
-0.000342953
0.000222195
-0.000448077
0.000264701
-0.000560172
0.000302149
-0.000674292
0.000330947
-0.000785762
0.000348526
-0.000890762
0.000353581
-0.000986563
0.000345969
-0.00107145
0.000326405
-0.00114448
0.000296099
-0.00120516
0.000256453
-0.00125325
0.00020888
-0.00128859
0.00015475
-0.00131106
9.53492e-05
-0.00132049
3.18903e-05
-0.0013166
-3.44436e-05
-0.00129903
-0.000102274
-0.00126731
-0.000170023
-0.00122087
-0.00023582
-0.00115915
-0.00029739
-0.00108189
-0.000351978
-0.000989313
-0.000396427
-0.000882532
-0.000427396
-0.00076383
-0.00044174
-0.000636901
-0.000437057
-0.000506814
-0.000412374
-0.000379596
-0.00036876
-0.000261449
-0.000309612
-0.000157672
-0.000240385
-7.17958e-05
-0.000167675
-5.2623e-06
-9.78466e-05
4.24687e-05
-3.58414e-05
7.26431e-05
1.5298e-05
8.68642e-05
5.40256e-05
8.7659e-05
7.97475e-05
7.82355e-05
9.33216e-05
6.21056e-05
9.66657e-05
4.273e-05
9.19074e-05
2.34032e-05
8.00851e-05
7.60157e-06
5.9779e-05
2.63984e-05
4.8961e-06
-2.97781e-05
8.87232e-06
-4.89992e-05
5.27314e-06
-3.74755e-05
-8.95054e-06
-7.23164e-06
-3.51433e-05
3.20146e-05
-7.44684e-05
7.50509e-05
-0.000128645
0.000120954
-0.00019942
0.000170871
-0.00028735
0.000225222
-0.000390907
0.000282154
-0.000506441
0.000337729
-0.000628889
0.000387148
-0.000752798
0.000426058
-0.000873264
0.000451413
-0.000986484
0.000461747
-0.0010899
0.000456998
-0.00118203
0.000438099
-0.00126218
0.00040655
-0.00133014
0.000364066
-0.00138605
0.00031236
-0.00143023
0.000253058
-0.00146311
0.00018763
-0.0014851
0.00011734
-0.0014965
4.32939e-05
-0.00149744
-3.35108e-05
-0.00148768
-0.000112032
-0.00146659
-0.00019111
-0.00143312
-0.000269295
-0.00138588
-0.000344633
-0.00132331
-0.000414541
-0.00124398
-0.000475763
-0.00114696
-0.000524416
-0.00103246
-0.000556239
-0.000902354
-0.000567161
-0.000760607
-0.00055412
-0.00061334
-0.000516028
-0.000468333
-0.000454619
-0.000333847
-0.000374872
-0.000216948
-0.000284573
-0.000121947
-0.000192848
-4.9804e-05
-0.000107984
1.11429e-06
-3.56205e-05
3.34101e-05
2.17296e-05
4.96353e-05
6.35221e-05
5.27486e-05
9.0208e-05
4.61639e-05
0.00010325
3.35834e-05
0.000104488
1.88681e-05
9.48002e-05
6.11223e-06
7.25347e-05
3.25106e-05
2.2707e-06
-3.20489e-05
-9.2645e-07
-4.58022e-05
-1.50276e-05
-2.33746e-05
-4.22241e-05
1.99645e-05
-8.36991e-05
7.34894e-05
-0.000140887
0.000132239
-0.000215488
0.000195554
-0.000308178
0.00026356
-0.000417415
0.000334459
-0.000539252
0.000403991
-0.000668139
0.000466617
-0.000798142
0.000517151
-0.000923991
0.000551907
-0.00104167
0.00056909
-0.00114852
0.0005686
-0.00124308
0.000551552
-0.00132476
0.00051978
-0.00139364
0.000475439
-0.0014503
0.000420724
-0.00149565
0.000357705
-0.00153081
0.00028822
-0.00155695
0.000213768
-0.0015751
0.000135493
-0.0015861
5.42942e-05
-0.00159046
-2.91572e-05
-0.00158815
-0.000114333
-0.00157864
-0.000200619
-0.00156076
-0.000287175
-0.0015327
-0.000372696
-0.00149201
-0.000455234
-0.0014358
-0.000531973
-0.00136115
-0.000599066
-0.00126568
-0.000651704
-0.00114836
-0.000684482
-0.00101037
-0.000692115
-0.000855869
-0.000670527
-0.000692276
-0.000618211
-0.000529636
-0.000537513
-0.000378961
-0.000435248
-0.000249735
-0.000322074
-0.000147439
-0.00021028
-7.25389e-05
-0.000110521
-2.17338e-05
-2.90758e-05
9.29855e-06
3.24895e-05
2.44169e-05
7.50895e-05
2.74049e-05
0.000100262
2.22198e-05
0.000109673
1.30411e-05
0.000103979
4.2112e-06
8.13645e-05
3.67218e-05
-1.92263e-06
-3.01263e-05
-1.46693e-05
-3.30558e-05
-4.13514e-05
3.3074e-06
-8.32593e-05
6.18722e-05
-0.000141405
0.000131635
-0.000217186
0.00020802
-0.000311383
0.000289751
-0.000422709
0.000374886
-0.000547269
0.00045902
-0.000679256
0.000535978
-0.000812281
0.000599642
-0.000940583
0.000645453
-0.00105972
0.000671042
-0.00116673
0.000676101
-0.00125999
0.000661863
-0.00133897
0.000630533
-0.00140401
0.000584814
-0.0014561
0.000527532
-0.00149675
0.000461369
-0.00152772
0.000388678
-0.00155085
0.000311348
-0.00156782
0.000230738
-0.00158008
0.000147756
-0.00158876
6.29744e-05
-0.00159457
-2.33446e-05
-0.00159776
-0.000111147
-0.00159807
-0.000200309
-0.00159462
-0.000290625
-0.00158573
-0.000381583
-0.00156884
-0.000472125
-0.0015405
-0.000560319
-0.00149649
-0.000643071
-0.00143226
-0.000715934
-0.00134365
-0.000773093
-0.00122806
-0.000807711
-0.00108574
-0.000812842
-0.000921003
-0.000782949
-0.000742699
-0.000715816
-0.000563571
-0.000614376
-0.000397991
-0.000487655
-0.000258354
-0.000349917
-0.000151438
-0.000217437
-7.68906e-05
-0.000103623
-2.92505e-05
-1.51508e-05
-2.09006e-06
4.79289e-05
9.96178e-06
8.821e-05
1.17225e-05
0.000107912
7.78743e-06
0.000107914
2.59966e-06
8.65521e-05
3.93214e-05
-7.75129e-06
-2.23751e-05
-3.19164e-05
-8.89086e-06
-7.25268e-05
4.39177e-05
-0.00012984
0.000119185
-0.000204677
0.000206472
-0.000297765
0.000301109
-0.00040821
0.000400196
-0.000532499
0.000499175
-0.000664856
0.000591376
-0.000798548
0.00066967
-0.000927262
0.000728356
-0.00104599
0.000764176
-0.0011513
0.000776359
-0.00124133
0.000766127
-0.00131551
0.000736045
-0.00137441
0.00068943
-0.00141945
0.000629858
-0.00145267
0.000560754
-0.0014764
0.000485095
-0.00149296
0.000405242
-0.00150448
0.000322862
-0.00151273
0.00023899
-0.00151916
0.000154185
-0.00152482
6.86316e-05
-0.00153041
-1.77532e-05
-0.00153635
-0.000105203
-0.00154273
-0.000193934
-0.00154915
-0.000284205
-0.00155459
-0.000376139
-0.00155721
-0.00046951
-0.00155405
-0.000563477
-0.00154088
-0.000656241
-0.00151221
-0.000744606
-0.00146175
-0.000823548
-0.00138341
-0.000886055
-0.00127274
-0.000923514
-0.00112882
-0.00092687
-0.000955989
-0.000888643
-0.000764767
-0.000805599
-0.000571035
-0.000681387
-0.000393011
-0.00052794
-0.00024623
-0.000364218
-0.000138437
-0.000211417
-6.7733e-05
-8.58546e-05
-2.59164e-05
6.1122e-06
-4.32485e-06
6.66182e-05
3.86239e-06
9.97243e-05
4.27851e-06
0.000107497
1.71364e-06
8.91168e-05
4.1035e-05
-1.49423e-05
-7.43286e-06
-5.16851e-05
2.78518e-05
-0.000106519
9.87516e-05
-0.000178769
0.000191435
-0.000268784
0.000296486
-0.000376019
0.000408344
-0.000497604
0.00052178
-0.000628138
0.00062971
-0.000760766
0.000724005
-0.00088867
0.000797574
-0.00100619
0.000845875
-0.00110933
0.00086732
-0.00119586
0.00086288
-0.00126511
0.000835379
-0.00131783
0.000788767
-0.00135585
0.000727449
-0.0013817
0.00065571
-0.00139821
0.000577265
-0.00140812
0.000495004
-0.0014138
0.000410924
-0.00141715
0.000326209
-0.00141959
0.000241429
-0.00142214
0.000156736
-0.0014255
7.19939e-05
-0.00143018
-1.30716e-05
-0.00143659
-9.8794e-05
-0.001445
-0.000185528
-0.00145551
-0.000273689
-0.00146797
-0.000363683
-0.00148165
-0.000455828
-0.00149491
-0.000550219
-0.00150472
-0.000646428
-0.00150635
-0.000742978
-0.00149323
-0.00083667
-0.00145736
-0.000921925
-0.00139046
-0.00099041
-0.00128598
-0.00103135
-0.00114164
-0.00103299
-0.000961887
-0.000985348
-0.000759244
-0.00088403
-0.000553272
-0.000733912
-0.000366437
-0.000551053
-0.000217222
-0.000360632
-0.000113365
-0.000189712
-5.02058e-05
-5.70472e-05
-1.63494e-05
3.27617e-05
-1.29601e-06
8.46707e-05
2.74567e-06
0.000103455
1.64756e-06
9.02147e-05
4.26826e-05
-2.29966e-05
1.55637e-05
-7.24648e-05
7.73199e-05
-0.000140735
0.000167022
-0.000226292
0.000276992
-0.000328611
0.000398805
-0.00044556
0.000525293
-0.000572471
0.000648691
-0.000702707
0.000759945
-0.000829112
0.000850409
-0.00094538
0.000913842
-0.00104686
0.000947351
-0.0011308
0.000951263
-0.00119635
0.00092843
-0.00124433
0.000883356
-0.00127688
0.000821323
-0.00129702
0.000747588
-0.00130805
0.000666737
-0.00131308
0.000582291
-0.00131468
0.000496608
-0.00131477
0.000411017
-0.00131463
0.000326071
-0.00131505
0.000241841
-0.00131645
0.000158134
-0.00131909
7.46356e-05
-0.00132318
-8.97539e-06
-0.00132898
-9.29986e-05
-0.00133677
-0.000177736
-0.00134697
-0.000263495
-0.00136
-0.000350653
-0.00137613
-0.00043969
-0.00139517
-0.000531179
-0.00141597
-0.000625635
-0.0014358
-0.000723141
-0.00144976
-0.000822713
-0.00145033
-0.000921357
-0.00142775
-0.00101299
-0.00137141
-0.00108769
-0.00127243
-0.00113196
-0.00112713
-0.00113065
-0.00094037
-0.00107079
-0.000727313
-0.00094697
-0.000511955
-0.00076641
-0.000321271
-0.000551317
-0.000175862
-0.000335121
-8.16335e-05
-0.000151276
-2.96291e-05
-1.92429e-05
-5.40107e-06
6.04425e-05
2.48963e-06
9.55645e-05
2.18028e-06
9.0524e-05
4.48628e-05
-3.11716e-05
4.67352e-05
-9.24427e-05
0.000138591
-0.000172439
0.000247018
-0.000268687
0.00037324
-0.000379525
0.000509643
-0.000501267
0.000647035
-0.000627918
0.000775342
-0.000752302
0.000884329
-0.000867578
0.000965686
-0.000968365
0.00101463
-0.00105128
0.00103027
-0.00111507
0.00101505
-0.00116045
0.000973814
-0.00118977
0.000912676
-0.00120642
0.000837965
-0.00121413
0.000755302
-0.0012164
0.000669004
-0.00121601
0.000581903
-0.0012149
0.000495502
-0.00121422
0.00041033
-0.00121448
0.000326336
-0.00121584
0.000243199
-0.00121824
0.000160536
-0.0012216
7.79946e-05
-0.00122588
-4.69493e-06
-0.00123115
-8.77272e-05
-0.00123763
-0.000171256
-0.00124573
-0.000255401
-0.00125603
-0.000340353
-0.00126926
-0.000426455
-0.00128618
-0.000514263
-0.00130723
-0.000604583
-0.00133199
-0.000698377
-0.00135831
-0.000796402
-0.00138128
-0.000898382
-0.00139262
-0.00100166
-0.00138076
-0.00109955
-0.00133256
-0.00118016
-0.00123668
-0.00122652
-0.00108823
-0.00121924
-0.000893197
-0.00114201
-0.000670513
-0.000989095
-0.000449558
-0.000772272
-0.000261701
-0.000522978
-0.000127807
-0.00028517
-4.91671e-05
-9.78832e-05
-1.12841e-05
2.25593e-05
2.15409e-06
8.21262e-05
2.87944e-06
8.97984e-05
4.77423e-05
-3.85924e-05
8.53276e-05
-0.000109891
0.000209889
-0.000199147
0.000336274
-0.000302815
0.000476909
-0.000418037
0.000624865
-0.000539853
0.000768851
-0.00066152
0.000897009
-0.000775924
0.000998733
-0.000876986
0.00106675
-0.000960545
0.00109819
-0.00102472
0.00109444
-0.00106987
0.00106021
-0.00109831
0.00100226
-0.00111366
0.000928017
-0.00112002
0.00084433
-0.00112126
0.000756545
-0.00112043
0.000668167
-0.00111952
0.000580994
-0.00111959
0.000495576
-0.00112099
0.000411731
-0.00112364
0.000328981
-0.00112726
0.000246819
-0.00113155
0.000164834
-0.0011363
8.27405e-05
-0.00114136
3.6363e-07
-0.00114671
-8.23803e-05
-0.00115244
-0.000165518
-0.00115881
-0.000249031
-0.00116624
-0.000332932
-0.00117537
-0.000417319
-0.00118717
-0.000502467
-0.00120279
-0.000588962
-0.00122333
-0.000677836
-0.00124917
-0.000770562
-0.00127888
-0.000868671
-0.00130781
-0.000972727
-0.00132688
-0.00108048
-0.00132257
-0.00118448
-0.00127897
-0.00127012
-0.00118234
-0.00131587
-0.00102718
-0.00129716
-0.000821916
-0.00119436
-0.000590912
-0.00100328
-0.000369924
-0.000743965
-0.000193724
-0.00046137
-8.00007e-05
-0.000211606
-2.19578e-05
-3.54836e-05
2.41669e-07
5.99264e-05
3.27065e-06
8.67693e-05
5.10129e-05
-4.44919e-05
0.00012982
-0.000123379
0.000288777
-0.000218942
0.000431837
-0.000326501
0.000584467
-0.000442114
0.000740479
-0.000559969
0.000886707
-0.000673118
0.00101016
-0.000774972
0.00110059
-0.000860525
0.0011523
-0.00092704
0.0011647
-0.000974232
0.00114163
-0.00100405
0.00109003
-0.00102011
0.00101831
-0.00102676
0.000934669
-0.00102822
0.00084579
-0.00102783
0.000756158
-0.00102776
0.000668097
-0.00102906
0.000582293
-0.00103195
0.000498472
-0.00103621
0.000415989
-0.00104142
0.000334191
-0.00104718
0.000252581
-0.00105319
0.000170838
-0.00105923
8.8787e-05
-0.00106522
6.34849e-06
-0.00107111
-7.64892e-05
-0.00107693
-0.000159694
-0.00108276
-0.000243203
-0.00108876
-0.000326935
-0.00109526
-0.000410816
-0.00110289
-0.000494838
-0.00111266
-0.000579193
-0.00112602
-0.000664474
-0.00114467
-0.00075191
-0.00116985
-0.000843494
-0.00120094
-0.000941637
-0.00123353
-0.00104789
-0.00125762
-0.00116038
-0.00125741
-0.00127033
-0.00121401
-0.00135927
-0.00111153
-0.00139964
-0.000945154
-0.00136074
-0.000727867
-0.00122056
-0.000491616
-0.000980216
-0.000279014
-0.000673972
-0.000125351
-0.00036527
-3.96851e-05
-0.00012115
-4.39886e-06
2.46401e-05
3.02851e-06
7.93417e-05
5.40414e-05
-4.82998e-05
0.000178119
-0.000131926
0.000372403
-0.000230647
0.000530558
-0.000338657
0.000692477
-0.000451172
0.000852993
-0.000561966
0.000997501
-0.000664334
0.00111253
-0.000752537
0.00118879
-0.000822838
0.0012226
-0.000873992
0.00121586
-0.000907245
0.00117488
-0.000925851
0.00110863
-0.00093421
0.00102667
-0.000936819
0.000937277
-0.000937376
0.000846347
-0.000938314
0.000757096
-0.000940793
0.000670576
-0.000945015
0.000586514
-0.000950649
0.000504106
-0.00095719
0.00042253
-0.000964178
0.000341179
-0.000971286
0.000259689
-0.000978327
0.000177879
-0.000985218
9.5678e-05
-0.000991938
1.30689e-05
-0.000998492
-6.99355e-05
-0.00100488
-0.000153305
-0.00101109
-0.000236991
-0.00101712
-0.000320912
-0.00102299
-0.000404946
-0.00102888
-0.000488946
-0.00103527
-0.000572805
-0.00104314
-0.000656604
-0.00105415
-0.000740898
-0.00107054
-0.000827101
-0.00109439
-0.000917788
-0.00112589
-0.0010164
-0.00116071
-0.00112556
-0.00118752
-0.00124351
-0.00118768
-0.00135912
-0.00113909
-0.00144823
-0.00102461
-0.00147523
-0.000842282
-0.00140289
-0.000612768
-0.00120973
-0.000377801
-0.000908939
-0.000185632
-0.000557439
-6.59141e-05
-0.000240867
-1.23413e-05
-2.8933e-05
2.03766e-06
6.49627e-05
5.6079e-05
-4.96874e-05
0.000227807
-0.000135042
0.000457757
-0.00023384
0.000629357
-0.000339219
0.000797856
-0.000445843
0.000959617
-0.000547469
0.00109913
-0.000637967
0.00120303
-0.000712644
0.00126347
-0.000769092
0.00127905
-0.000807489
0.00125425
-0.000830347
0.00119774
-0.000841775
0.00112006
-0.000846391
0.00103128
-0.000848262
0.000939148
-0.000850205
0.00084829
-0.000853633
0.000760524
-0.000858839
0.000675782
-0.000865467
0.000593143
-0.000872948
0.000511587
-0.000880772
0.000430354
-0.0008886
0.000349007
-0.000896267
0.000267356
-0.000903734
0.000185345
-0.000911026
0.000102971
-0.000918196
2.02389e-05
-0.000925286
-6.28452e-05
-0.00093231
-0.000146281
-0.000939242
-0.000230059
-0.000946011
-0.000314144
-0.000952505
-0.000398453
-0.00095861
-0.00048284
-0.00096432
-0.000567095
-0.000969928
-0.000650996
-0.000976333
-0.000734493
-0.000985348
-0.000818086
-0.00099973
-0.000903406
-0.00102239
-0.000993738
-0.0010542
-0.00109375
-0.00109051
-0.00120721
-0.00111784
-0.00133179
-0.00111392
-0.00145214
-0.00105358
-0.00153557
-0.00092019
-0.00153628
-0.000718289
-0.00141163
-0.00048005
-0.00114718
-0.000258146
-0.000779344
-0.000101462
-0.000397551
-2.37483e-05
-0.000106647
3.04974e-07
4.09092e-05
5.6384e-05
-4.85687e-05
0.000276376
-0.000132698
0.000541887
-0.000228757
0.000725416
-0.000328937
0.000898036
-0.000427631
0.00105831
-0.000518896
0.00119039
-0.000597394
0.00128152
-0.000659553
0.00132562
-0.000704229
0.00132373
-0.000732795
0.00128282
-0.000748646
0.00121359
-0.00075623
0.00112765
-0.000759876
0.00103493
-0.000762861
0.000942133
-0.000767016
0.000852445
-0.000772876
0.000766384
-0.000780156
0.000683062
-0.00078826
0.000601248
-0.000796633
0.00051996
-0.00080491
0.000438631
-0.000812933
0.00035703
-0.000820688
0.000275111
-0.000828241
0.000192898
-0.000835684
0.000110414
-0.000843101
2.76556e-05
-0.000850555
-5.53911e-05
-0.000858075
-0.00013876
-0.000865655
-0.00022248
-0.000873235
-0.000306564
-0.000880691
-0.000390997
-0.000887828
-0.000475703
-0.000894405
-0.000560518
-0.000900239
-0.000645162
-0.000905437
-0.000729295
-0.000910802
-0.000812721
-0.000918315
-0.000895893
-0.000931292
-0.000980761
-0.000953461
-0.00107158
-0.000986103
-0.00117457
-0.00102341
-0.00129448
-0.00104855
-0.001427
-0.00103478
-0.00154934
-0.000954724
-0.00161633
-0.000795759
-0.0015706
-0.000574047
-0.00136889
-0.000337065
-0.00101633
-0.000146063
-0.000588553
-3.89958e-05
-0.000213714
-2.30913e-06
4.22245e-06
5.40748e-05
-4.50637e-05
0.000321439
-0.000125238
0.000622062
-0.000216131
0.000816309
-0.000309111
0.000991016
-0.000398542
0.00114774
-0.000479009
0.00127086
-0.00054607
0.00134859
-0.000597238
0.00137679
-0.000632456
0.00135894
-0.000653968
0.00130433
-0.000665614
0.00122524
-0.00067172
0.00113375
-0.00067598
0.00103919
-0.000680761
0.000946915
-0.000687018
0.000858701
-0.000694674
0.000774041
-0.000703175
0.000691563
-0.000711927
0.000609999
-0.000720523
0.000528556
-0.000728788
0.000446896
-0.000736717
0.000364959
-0.000744397
0.000282791
-0.000751943
0.000200445
-0.000759464
0.000117935
-0.000767047
3.52381e-05
-0.000774754
-4.76838e-05
-0.00078262
-0.000130894
-0.000790656
-0.000214444
-0.000798836
-0.000298383
-0.000807082
-0.000382751
-0.000815236
-0.000467549
-0.000823042
-0.000552711
-0.000830153
-0.000638051
-0.000836228
-0.000723221
-0.000841208
-0.00080774
-0.000845846
-0.000891255
-0.000852369
-0.000974238
-0.000864763
-0.00105919
-0.000887542
-0.00115179
-0.000921838
-0.00126018
-0.000959346
-0.00138949
-0.00097817
-0.00153051
-0.000946693
-0.00164781
-0.000837972
-0.00167932
-0.000649194
-0.00155767
-0.000414421
-0.0012511
-0.000197672
-0.000805302
-5.87424e-05
-0.000352643
-5.87635e-06
-4.86437e-05
4.81985e-05
-3.94455e-05
0.000360885
-0.000113262
0.000695878
-0.000197003
0.000900049
-0.000281334
0.00107535
-0.000360767
0.00122718
-0.000430553
0.00134064
-0.000487158
0.00140519
-0.000529059
0.00141869
-0.000557024
0.00138691
-0.000573809
0.00132112
-0.000583291
0.00123472
-0.00058934
0.0011398
-0.000594861
0.00104471
-0.000601377
0.000953431
-0.000609193
0.000866517
-0.000617906
0.000782753
-0.00062692
0.000700577
-0.000635776
0.000618856
-0.000644256
0.000537035
-0.00065234
0.000454981
-0.000660123
0.000372743
-0.000667735
0.000290403
-0.000675299
0.000208009
-0.000682915
0.000125551
-0.000690656
4.29789e-05
-0.000698575
-3.97644e-05
-0.000706704
-0.000122765
-0.000715059
-0.000206089
-0.000723638
-0.000289804
-0.000732406
-0.000373983
-0.000741273
-0.000458682
-0.000750063
-0.000543921
-0.000758472
-0.000629642
-0.000766061
-0.000715632
-0.000772352
-0.00080145
-0.000777158
-0.000886449
-0.000781269
-0.000970126
-0.00078734
-0.00105312
-0.000800211
-0.00113892
-0.000825026
-0.00123537
-0.000861701
-0.00135282
-0.000897316
-0.0014949
-0.000903118
-0.00164201
-0.000843725
-0.00173871
-0.000698241
-0.00170315
-0.000481992
-0.00146735
-0.000252209
-0.00103509
-8.31337e-05
-0.000521718
-1.03772e-05
-0.0001214
3.78213e-05
-3.20861e-05
0.000392971
-9.7518e-05
0.00076131
-0.000172559
0.00097509
-0.000247275
0.00115006
-0.000316432
0.00129633
-0.000376008
0.00140022
-0.000423321
0.0014525
-0.000457623
0.001453
-0.000480224
0.00140951
-0.000494037
0.00133493
-0.000502659
0.00124334
-0.000509321
0.00114646
-0.000516145
0.00105154
-0.000523978
0.000961264
-0.000532727
0.000875266
-0.000541882
0.000791908
-0.000550945
0.00070964
-0.00055963
0.000627541
-0.000567878
0.000545283
-0.00057577
0.000462873
-0.000583446
0.000380419
-0.000591041
0.000297998
-0.000598665
0.000215633
-0.000606402
0.000133288
-0.000614311
5.08879e-05
-0.000622436
-3.16391e-05
-0.000630801
-0.0001144
-0.000639422
-0.000197468
-0.000648303
-0.000280923
-0.000657432
-0.000364854
-0.000666767
-0.000449347
-0.000676212
-0.000534477
-0.00068557
-0.000620284
-0.000694493
-0.000706708
-0.000702455
-0.000793489
-0.000708852
-0.000880052
-0.000713435
-0.000965544
-0.000717195
-0.00104935
-0.000723504
-0.00113261
-0.00073826
-0.00122061
-0.000766727
-0.00132435
-0.000805634
-0.00145599
-0.000834567
-0.00161308
-0.000817025
-0.00175625
-0.000718299
-0.00180188
-0.000533172
-0.00165247
-0.000304395
-0.00126386
-0.000111158
-0.000714955
-1.58145e-05
-0.000216744
2.20068e-05
-2.34097e-05
0.000416381
-7.88117e-05
0.000816713
-0.000143998
0.00104028
-0.000208522
0.00121459
-0.000267442
0.00135525
-0.00031746
0.00145024
-0.000356642
0.00149169
-0.000384806
0.00148116
-0.000403515
0.00142822
-0.000415551
0.00134697
-0.000424024
0.00125181
-0.000431464
0.0011539
-0.000439316
0.00105939
-0.000447955
0.000969904
-0.0004571
0.000884411
-0.000466275
0.000801084
-0.000475131
0.000718496
-0.000483537
0.000635947
-0.00049154
0.000553286
-0.000499274
0.000470607
-0.000506883
0.000388028
-0.000514491
0.000305606
-0.00052219
0.000223332
-0.000530052
0.00014115
-0.000538127
5.89635e-05
-0.000546457
-2.33093e-05
-0.000555058
-0.000105798
-0.000563942
-0.000188583
-0.000573112
-0.000271753
-0.00058256
-0.000355406
-0.000592265
-0.000439642
-0.000602177
-0.000524565
-0.000612188
-0.000610273
-0.000622077
-0.000696819
-0.000631441
-0.000784124
-0.000639656
-0.000871837
-0.000646015
-0.000959184
-0.000650309
-0.00104506
-0.000654005
-0.00112891
-0.000661598
-0.00121302
-0.000680114
-0.00130584
-0.000713593
-0.00142251
-0.00075228
-0.00157439
-0.000765291
-0.00174324
-0.000710625
-0.00185654
-0.000564117
-0.00179898
-0.000349196
-0.00147878
-0.000140824
-0.000923327
-2.20859e-05
-0.000335482
-7.90739e-08
-1.3857e-05
0.000430238
-5.79412e-05
0.000860797
-0.000112446
0.00109478
-0.00016649
0.00126863
-0.000215401
0.00140416
-0.000256558
0.0014914
-0.000288648
0.00152378
-0.000311845
0.00150436
-0.00032772
0.00144409
-0.000338708
0.00135796
-0.000347319
0.00126043
-0.000355417
0.001162
-0.00036391
0.00106788
-0.000372893
0.000978886
-0.000382036
0.000893554
-0.000390972
0.00081002
-0.000399494
0.000727019
-0.000407587
0.000644041
-0.000415358
0.000561057
-0.000422952
0.000478201
-0.000430504
0.00039558
-0.000438119
0.000313221
-0.000445876
0.000231089
-0.00045384
0.000149115
-0.000462065
6.71882e-05
-0.000470591
-1.47828e-05
-0.000479433
-9.69567e-05
-0.000488597
-0.000179419
-0.000498081
-0.000262269
-0.000507873
-0.000345613
-0.000517956
-0.000429559
-0.000528297
-0.000514224
-0.000538837
-0.000599733
-0.000549448
-0.000686207
-0.000559869
-0.000773703
-0.000569621
-0.000862086
-0.000577967
-0.000950837
-0.000584141
-0.00103889
-0.00058816
-0.00112489
-0.000592405
-0.00120877
-0.000602962
-0.00129528
-0.000627487
-0.00139799
-0.000665867
-0.00153601
-0.000697263
-0.00171184
-0.000679561
-0.00187425
-0.000573999
-0.00190455
-0.000382901
-0.00166988
-0.000169557
-0.00113667
-2.94008e-05
-0.000475639
-2.94798e-05
-3.84797e-06
0.000434086
-3.56707e-05
0.00089262
-7.89113e-05
0.00113802
-0.000122378
0.0013121
-0.000161594
0.00144338
-0.000194537
0.00152434
-0.000220382
0.00154962
-0.00023948
0.00152345
-0.000253215
0.00145783
-0.000263536
0.00136828
-0.000272313
0.0012692
-0.000280821
0.00117051
-0.000289579
0.00107664
-0.000298536
0.000987843
-0.000307406
0.000902425
-0.000315947
0.000818561
-0.000324072
0.000735144
-0.000331838
0.000651807
-0.000339374
0.000568593
-0.000346818
0.000485646
-0.00035429
0.000403052
-0.000361879
0.00032081
-0.000369657
0.000238867
-0.000377687
0.000157146
-0.000386032
7.55335e-05
-0.000394738
-6.07704e-06
-0.00040382
-8.78744e-05
-0.000413282
-0.000169956
-0.000423114
-0.000252437
-0.000433299
-0.000335428
-0.000443813
-0.000419045
-0.000454629
-0.000503408
-0.000465706
-0.000588656
-0.000476967
-0.000674946
-0.000488252
-0.000762418
-0.000499234
-0.000851103
-0.000509329
-0.000940742
-0.000517686
-0.00103053
-0.000523572
-0.00111901
-0.000527583
-0.00120476
-0.000533642
-0.00128922
-0.000549687
-0.00138194
-0.000582052
-0.00150364
-0.000621204
-0.00167269
-0.00063114
-0.00186431
-0.000564538
-0.00197115
-0.000403629
-0.00183079
-0.000194919
-0.00134538
-3.78219e-05
-0.000632736
-6.73017e-05
6.08021e-06
0.000428006
-1.26685e-05
0.000911369
-4.42832e-05
0.00116964
-7.71785e-05
0.00134499
-0.000107019
0.00147322
-0.00013228
0.0015496
-0.00015251
0.00156985
-0.000168092
0.00153904
-0.000180091
0.00146983
-0.000189888
0.00137807
-0.000198724
0.00127804
-0.00020737
0.00117916
-0.000216074
0.00108534
-0.000224734
0.000996503
-0.00023315
0.000910842
-0.000241199
0.00082661
-0.000248882
0.000742827
-0.000256295
0.00065922
-0.000263568
0.000575867
-0.000270828
0.000492906
-0.000278176
0.0004104
-0.000285693
0.000328328
-0.000293448
0.000246622
-0.000301502
0.000165201
-0.000309932
8.39637e-05
-0.000318793
2.78346e-06
-0.000328109
-7.85576e-05
-0.000337882
-0.000160183
-0.000348092
-0.000242227
-0.000358715
-0.000324804
-0.000369725
-0.000408035
-0.000381092
-0.000492041
-0.000392779
-0.000576969
-0.000404731
-0.000662993
-0.000416845
-0.000750304
-0.000428903
-0.000839045
-0.000440486
-0.000929159
-0.000450877
-0.00102014
-0.00045914
-0.00111074
-0.000464801
-0.0011991
-0.000469628
-0.00128439
-0.000479828
-0.00137174
-0.000504456
-0.00147901
-0.00054372
-0.00163343
-0.000571742
-0.00183629
-0.000539149
-0.00200374
-0.000411274
-0.00195866
-0.000215148
-0.00154151
-4.69261e-05
-0.000800958
-0.000114228