/*--------------------------------*- C++ -*----------------------------------*\
  =========                 |
  \\      /  F ield         | OpenFOAM: The Open Source CFD Toolbox
   \\    /   O peration     | Website:  https://openfoam.org
    \\  /    A nd           | Version:  7
     \\/     M anipulation  |
\*---------------------------------------------------------------------------*/
FoamFile
{
    version     2.0;
    format      ascii;
    class       volVectorField;
    location    "750";
    object      U;
}
// * * * * * * * * * * * * * * * * * * * * * * * * * * * * * * * * * * * * * //

dimensions      [0 1 -1 0 0 0 0];

internalField   nonuniform List<vector> 
2500
(
(0.000207529 -0.000201422 0)
(0.00186765 -0.000571743 0)
(0.00447483 -0.000698137 0)
(0.00716405 -0.000600289 0)
(0.00923013 -0.000419107 0)
(0.0104513 -0.000264426 0)
(0.0109308 -0.000188112 0)
(0.0108815 -0.000186008 0)
(0.0104507 -0.000220001 0)
(0.00963358 -0.000245545 0)
(0.00828102 -0.000228749 0)
(0.00616049 -0.000150761 0)
(0.00301461 -2.53319e-06 0)
(-0.00140043 0.000221314 0)
(-0.00728937 0.000523925 0)
(-0.0147848 0.000908857 0)
(-0.0239092 0.00137614 0)
(-0.0345326 0.00191416 0)
(-0.0463372 0.00248969 0)
(-0.0587968 0.00304044 0)
(-0.071183 0.00347661 0)
(-0.082602 0.00369355 0)
(-0.0920647 0.00359277 0)
(-0.0985879 0.00310897 0)
(-0.101306 0.00223637 0)
(-0.0995449 0.00103299 0)
(-0.0930356 -0.000370443 0)
(-0.081851 -0.00180832 0)
(-0.066458 -0.00310702 0)
(-0.0477129 -0.00409955 0)
(-0.0268343 -0.00464093 0)
(-0.00530471 -0.00460866 0)
(0.0153499 -0.00394003 0)
(0.0336593 -0.00278936 0)
(0.0483159 -0.00137659 0)
(0.0583628 0.00012046 0)
(0.0634186 0.00149222 0)
(0.0636951 0.00253055 0)
(0.0599972 0.00310941 0)
(0.0534902 0.00322352 0)
(0.045406 0.00298598 0)
(0.0368483 0.00254966 0)
(0.0286547 0.00204902 0)
(0.0213456 0.00157476 0)
(0.0151511 0.00117463 0)
(0.0100828 0.000863768 0)
(0.00603114 0.00063153 0)
(0.00290247 0.000436265 0)
(0.000795971 0.000192991 0)
(-8.19059e-05 -8.73027e-05 0)
(0.000566004 -0.00181806 0)
(0.00437815 -0.00431487 0)
(0.00958434 -0.00511707 0)
(0.0146055 -0.00444081 0)
(0.0181619 -0.00299807 0)
(0.0197673 -0.00145728 0)
(0.0194601 -0.000191795 0)
(0.0174516 0.000766523 0)
(0.0138265 0.00162661 0)
(0.00839561 0.00266727 0)
(0.00072185 0.00410575 0)
(-0.00975122 0.00604794 0)
(-0.0235529 0.00849803 0)
(-0.0410455 0.0113889 0)
(-0.0623093 0.0145822 0)
(-0.0870367 0.0178521 0)
(-0.114469 0.020878 0)
(-0.143412 0.0232676 0)
(-0.172343 0.0246121 0)
(-0.19958 0.0245541 0)
(-0.223467 0.0228468 0)
(-0.242525 0.0193904 0)
(-0.255553 0.0142491 0)
(-0.261695 0.0076551 0)
(-0.260477 -1.32532e-06 0)
(-0.251831 -0.00820426 0)
(-0.235951 -0.0163835 0)
(-0.213285 -0.0239853 0)
(-0.184598 -0.0304465 0)
(-0.150981 -0.0352328 0)
(-0.113841 -0.0378819 0)
(-0.0748758 -0.0380504 0)
(-0.0359955 -0.035593 0)
(0.000865116 -0.0306916 0)
(0.0338606 -0.0238445 0)
(0.0613137 -0.0157777 0)
(0.0819065 -0.00731246 0)
(0.0949166 0.000668734 0)
(0.100209 0.00732239 0)
(0.0983946 0.0120657 0)
(0.090929 0.0147005 0)
(0.0795975 0.0154278 0)
(0.0662264 0.014712 0)
(0.052414 0.0131066 0)
(0.0393391 0.0111175 0)
(0.0276968 0.00911131 0)
(0.0177761 0.00725003 0)
(0.0096842 0.00543592 0)
(0.00372724 0.00334434 0)
(0.00032947 0.000919083 0)
(0.000785864 -0.00449677 0)
(0.00568959 -0.00969493 0)
(0.0117187 -0.0109172 0)
(0.0169062 -0.00900497 0)
(0.0197615 -0.00542228 0)
(0.0197078 -0.00146729 0)
(0.0166626 0.00215584 0)
(0.0106237 0.00542745 0)
(0.00136519 0.0087869 0)
(-0.011645 0.0128006 0)
(-0.0291202 0.0178546 0)
(-0.051688 0.0240258 0)
(-0.0796537 0.0311026 0)
(-0.112787 0.0386209 0)
(-0.150213 0.0459001 0)
(-0.190455 0.0521213 0)
(-0.231625 0.0564608 0)
(-0.271685 0.0582323 0)
(-0.308712 0.0569896 0)
(-0.34108 0.0525674 0)
(-0.367554 0.0450651 0)
(-0.387287 0.0347977 0)
(-0.399766 0.0222376 0)
(-0.404733 0.00796621 0)
(-0.402116 -0.00736595 0)
(-0.391888 -0.023078 0)
(-0.374084 -0.0384601 0)
(-0.348975 -0.0527231 0)
(-0.317048 -0.0650302 0)
(-0.27907 -0.074543 0)
(-0.236128 -0.0804896 0)
(-0.189658 -0.0822596 0)
(-0.141421 -0.0795204 0)
(-0.0934211 -0.0723268 0)
(-0.04777 -0.0612265 0)
(-0.00646189 -0.0472248 0)
(0.0287794 -0.0316123 0)
(0.0565945 -0.0158369 0)
(0.0762908 -0.00118903 0)
(0.0875958 0.0111346 0)
(0.09077 0.0202257 0)
(0.0870662 0.0257197 0)
(0.0781892 0.027848 0)
(0.0660288 0.0272996 0)
(0.0523852 0.0249732 0)
(0.0387201 0.0217242 0)
(0.0260342 0.0181232 0)
(0.0149686 0.0142409 0)
(0.00625698 0.00958485 0)
(0.000705321 0.00358776 0)
(0.00091777 -0.00772853 0)
(0.00606848 -0.0155925 0)
(0.011545 -0.0165369 0)
(0.0151602 -0.0124489 0)
(0.0154109 -0.00572905 0)
(0.0117384 0.00170582 0)
(0.00391798 0.0089506 0)
(-0.00839961 0.0161143 0)
(-0.02588 0.0239601 0)
(-0.049339 0.0332388 0)
(-0.0794135 0.0442299 0)
(-0.1162 0.056592 0)
(-0.159031 0.0694485 0)
(-0.20645 0.081576 0)
(-0.256417 0.0916453 0)
(-0.306648 0.0984711 0)
(-0.35497 0.101205 0)
(-0.399573 0.0994271 0)
(-0.439126 0.0931229 0)
(-0.472753 0.0825961 0)
(-0.499933 0.0683467 0)
(-0.520363 0.0509705 0)
(-0.53385 0.0310985 0)
(-0.540238 0.00936975 0)
(-0.539367 -0.0135572 0)
(-0.531042 -0.0369564 0)
(-0.515139 -0.0599789 0)
(-0.491639 -0.0816555 0)
(-0.460645 -0.100922 0)
(-0.422469 -0.116642 0)
(-0.377732 -0.127678 0)
(-0.327452 -0.133024 0)
(-0.2731 -0.131987 0)
(-0.216608 -0.124363 0)
(-0.160291 -0.110584 0)
(-0.10663 -0.0917599 0)
(-0.0579766 -0.0695885 0)
(-0.0162006 -0.046074 0)
(0.0175031 -0.0231313 0)
(0.042543 -0.00250402 0)
(0.058858 0.0145706 0)
(0.0667065 0.0271686 0)
(0.0671995 0.0349143 0)
(0.061892 0.0381485 0)
(0.0525733 0.0377748 0)
(0.0410349 0.0349284 0)
(0.028828 0.0305668 0)
(0.0171882 0.0250325 0)
(0.00742083 0.0177415 0)
(0.000862067 0.00736696 0)
(0.000999765 -0.0110194 0)
(0.00560971 -0.0208267 0)
(0.00922503 -0.0203449 0)
(0.00966998 -0.0128955 0)
(0.0056066 -0.00192662 0)
(-0.00348396 0.0101389 0)
(-0.0180668 0.0224012 0)
(-0.0388979 0.0353044 0)
(-0.0669112 0.0497884 0)
(-0.102758 0.0663781 0)
(-0.146335 0.0846998 0)
(-0.196566 0.103522 0)
(-0.25151 0.121113 0)
(-0.308717 0.135677 0)
(-0.365682 0.145732 0)
(-0.420227 0.150325 0)
(-0.470706 0.149091 0)
(-0.516036 0.142154 0)
(-0.55559 0.129972 0)
(-0.589046 0.113166 0)
(-0.616242 0.0924032 0)
(-0.637094 0.0683449 0)
(-0.651546 0.0416342 0)
(-0.659519 0.0128943 0)
(-0.660898 -0.0172311 0)
(-0.655552 -0.04801 0)
(-0.643279 -0.0785758 0)
(-0.623802 -0.107922 0)
(-0.596817 -0.134877 0)
(-0.562091 -0.158084 0)
(-0.519585 -0.176061 0)
(-0.46959 -0.187341 0)
(-0.412912 -0.190674 0)
(-0.351023 -0.185286 0)
(-0.286132 -0.171156 0)
(-0.221076 -0.149211 0)
(-0.159019 -0.121343 0)
(-0.102964 -0.090156 0)
(-0.0552002 -0.0585027 0)
(-0.0169181 -0.0289021 0)
(0.0117553 -0.00313107 0)
(0.0312006 0.0176077 0)
(0.0419709 0.0326439 0)
(0.0452698 0.0418228 0)
(0.0426166 0.0456822 0)
(0.0357374 0.0452901 0)
(0.0263951 0.0417554 0)
(0.0162482 0.0355987 0)
(0.00710877 0.0261579 0)
(0.00079635 0.0113836 0)
(0.00099556 -0.0139235 0)
(0.00415911 -0.024291 0)
(0.00457388 -0.0208708 0)
(0.000383037 -0.00871456 0)
(-0.00948629 0.00767552 0)
(-0.0255968 0.0256184 0)
(-0.0486921 0.0445133 0)
(-0.0797524 0.0650336 0)
(-0.119491 0.0878349 0)
(-0.167723 0.112602 0)
(-0.223102 0.137879 0)
(-0.283322 0.161512 0)
(-0.345616 0.181279 0)
(-0.40729 0.195403 0)
(-0.466124 0.202817 0)
(-0.520536 0.203175 0)
(-0.56955 0.196701 0)
(-0.612662 0.183977 0)
(-0.649682 0.165749 0)
(-0.680609 0.142794 0)
(-0.705563 0.115866 0)
(-0.724755 0.0856748 0)
(-0.738413 0.0528691 0)
(-0.74671 0.0180419 0)
(-0.749754 -0.0182135 0)
(-0.747569 -0.0552674 0)
(-0.739954 -0.0924152 0)
(-0.726457 -0.128792 0)
(-0.706457 -0.163291 0)
(-0.679205 -0.194512 0)
(-0.643906 -0.220788 0)
(-0.599903 -0.240257 0)
(-0.546946 -0.251035 0)
(-0.48549 -0.251512 0)
(-0.41695 -0.240763 0)
(-0.343857 -0.218944 0)
(-0.269781 -0.187568 0)
(-0.198912 -0.149487 0)
(-0.135303 -0.10847 0)
(-0.0819597 -0.0683966 0)
(-0.0401733 -0.0323887 0)
(-0.00957018 -0.00231177 0)
(0.0110163 0.021101 0)
(0.0227773 0.0375687 0)
(0.027141 0.0473066 0)
(0.025771 0.0510961 0)
(0.0204575 0.0499308 0)
(0.0130738 0.0443157 0)
(0.00574751 0.0334759 0)
(0.000590802 0.0148938 0)
(0.000839423 -0.015863 0)
(0.00147946 -0.0247622 0)
(-0.00260601 -0.016681 0)
(-0.0127035 0.00146856 0)
(-0.0295973 0.0244281 0)
(-0.0539623 0.0496016 0)
(-0.0866981 0.0766807 0)
(-0.128563 0.106128 0)
(-0.17943 0.137695 0)
(-0.237867 0.169832 0)
(-0.301347 0.200058 0)
(-0.366836 0.22574 0)
(-0.431419 0.244762 0)
(-0.492733 0.255867 0)
(-0.549123 0.258661 0)
(-0.599596 0.253428 0)
(-0.643673 0.240873 0)
(-0.681262 0.221911 0)
(-0.712543 0.197513 0)
(-0.737898 0.168621 0)
(-0.75786 0.136112 0)
(-0.773033 0.100743 0)
(-0.783974 0.0631321 0)
(-0.791154 0.0237954 0)
(-0.794927 -0.0168062 0)
(-0.795444 -0.0582654 0)
(-0.792591 -0.100164 0)
(-0.785916 -0.14191 0)
(-0.77469 -0.182652 0)
(-0.75784 -0.2212 0)
(-0.733992 -0.255965 0)
(-0.701633 -0.28492 0)
(-0.659359 -0.305698 0)
(-0.606207 -0.31585 0)
(-0.542098 -0.313269 0)
(-0.46829 -0.296737 0)
(-0.387685 -0.266502 0)
(-0.304777 -0.224705 0)
(-0.225099 -0.175362 0)
(-0.15412 -0.123707 0)
(-0.095843 -0.0749339 0)
(-0.0517324 -0.0328386 0)
(-0.020776 0.000822682 0)
(-0.000766626 0.0259121 0)
(0.0102919 0.0427618 0)
(0.0143021 0.0519938 0)
(0.0131998 0.0544044 0)
(0.0090087 0.0503465 0)
(0.00399894 0.0389232 0)
(0.000362038 0.0174908 0)
(0.000464286 -0.0160931 0)
(-0.00257947 -0.0209602 0)
(-0.0122977 -0.00659797 0)
(-0.0292538 0.0186838 0)
(-0.0539782 0.0493026 0)
(-0.0872224 0.0829145 0)
(-0.12971 0.119167 0)
(-0.181446 0.157711 0)
(-0.241106 0.196993 0)
(-0.3061 0.234299 0)
(-0.37319 0.266583 0)
(-0.439208 0.291306 0)
(-0.501551 0.306906 0)
(-0.558376 0.312851 0)
(-0.608573 0.309432 0)
(-0.651634 0.297482 0)
(-0.687538 0.278133 0)
(-0.716646 0.252627 0)
(-0.739605 0.222194 0)
(-0.757261 0.187961 0)
(-0.77055 0.15089 0)
(-0.780369 0.111716 0)
(-0.7875 0.0709656 0)
(-0.792601 0.0290167 0)
(-0.796143 -0.0138815 0)
(-0.798368 -0.0575826 0)
(-0.799304 -0.101956 0)
(-0.798668 -0.146746 0)
(-0.795844 -0.191495 0)
(-0.789771 -0.235432 0)
(-0.778938 -0.277314 0)
(-0.761408 -0.315308 0)
(-0.734921 -0.346967 0)
(-0.697175 -0.369338 0)
(-0.64632 -0.379252 0)
(-0.581606 -0.373877 0)
(-0.504054 -0.351495 0)
(-0.41694 -0.312351 0)
(-0.325834 -0.259273 0)
(-0.23789 -0.197688 0)
(-0.160307 -0.134672 0)
(-0.0982673 -0.0770686 0)
(-0.053338 -0.0294283 0)
(-0.0235975 0.00682767 0)
(-0.00557476 0.0324164 0)
(0.00360413 0.0482694 0)
(0.00645137 0.0552308 0)
(0.00528546 0.053576 0)
(0.00248603 0.0423695 0)
(0.000209106 0.0191542 0)
(-0.00017299 -0.0137793 0)
(-0.00797273 -0.0118116 0)
(-0.0241355 0.0102277 0)
(-0.0484586 0.0435361 0)
(-0.0812598 0.0826765 0)
(-0.123175 0.125431 0)
(-0.174339 0.170869 0)
(-0.23368 0.21739 0)
(-0.298728 0.262142 0)
(-0.366148 0.301672 0)
(-0.432519 0.33292 0)
(-0.494935 0.353874 0)
(-0.551284 0.363733 0)
(-0.600266 0.362721 0)
(-0.641304 0.351784 0)
(-0.674428 0.332298 0)
(-0.700171 0.305841 0)
(-0.719439 0.273998 0)
(-0.733359 0.238222 0)
(-0.743133 0.199734 0)
(-0.749898 0.159456 0)
(-0.754632 0.118004 0)
(-0.758137 0.0757536 0)
(-0.761033 0.0328901 0)
(-0.763757 -0.0105555 0)
(-0.766595 -0.0546346 0)
(-0.769689 -0.0994277 0)
(-0.772971 -0.144982 0)
(-0.776111 -0.191234 0)
(-0.778413 -0.237883 0)
(-0.778714 -0.284221 0)
(-0.775235 -0.328972 0)
(-0.765518 -0.370119 0)
(-0.746531 -0.404782 0)
(-0.715028 -0.429285 0)
(-0.668161 -0.439519 0)
(-0.60435 -0.431692 0)
(-0.524266 -0.403383 0)
(-0.431591 -0.354746 0)
(-0.33315 -0.289427 0)
(-0.237987 -0.214635 0)
(-0.155241 -0.139779 0)
(-0.0912697 -0.0736812 0)
(-0.0474198 -0.0215811 0)
(-0.0204423 0.015768 0)
(-0.00548162 0.0400864 0)
(0.00119872 0.0527584 0)
(0.00267064 0.0543726 0)
(0.00160477 0.0441926 0)
(0.000183856 0.0201644 0)
(-0.00107395 -0.00815403 0)
(-0.0144238 0.00343191 0)
(-0.0373816 0.0341744 0)
(-0.0690626 0.0760813 0)
(-0.109522 0.124172 0)
(-0.159013 0.175988 0)
(-0.21679 0.229551 0)
(-0.280693 0.281903 0)
(-0.347446 0.329229 0)
(-0.413438 0.367862 0)
(-0.47544 0.395173 0)
(-0.531011 0.409917 0)
(-0.578605 0.412131 0)
(-0.617526 0.402817 0)
(-0.647832 0.3836 0)
(-0.670209 0.356426 0)
(-0.685806 0.323295 0)
(-0.696019 0.286045 0)
(-0.70228 0.246195 0)
(-0.705897 0.204877 0)
(-0.707941 0.162827 0)
(-0.709235 0.120458 0)
(-0.710377 0.0779421 0)
(-0.711767 0.035275 0)
(-0.713697 -0.00765738 0)
(-0.716427 -0.0510072 0)
(-0.720107 -0.0949604 0)
(-0.724841 -0.139727 0)
(-0.730633 -0.185485 0)
(-0.737302 -0.232307 0)
(-0.744315 -0.280048 0)
(-0.750552 -0.328172 0)
(-0.754106 -0.375478 0)
(-0.752139 -0.419793 0)
(-0.740926 -0.45776 0)
(-0.716201 -0.484857 0)
(-0.673964 -0.495822 0)
(-0.611676 -0.485611 0)
(-0.529625 -0.45088 0)
(-0.432004 -0.391692 0)
(-0.327136 -0.312837 0)
(-0.226235 -0.2239 0)
(-0.140494 -0.137237 0)
(-0.0771333 -0.0638714 0)
(-0.0366043 -0.0093507 0)
(-0.0137905 0.026773 0)
(-0.00263227 0.047125 0)
(0.00130052 0.0532335 0)
(0.00144596 0.0450085 0)
(0.00028816 0.0209414 0)
(-0.00218113 0.00132925 0)
(-0.0214339 0.0250573 0)
(-0.0510338 0.0651029 0)
(-0.0895159 0.115786 0)
(-0.136565 0.172655 0)
(-0.191823 0.232599 0)
(-0.25359 0.292362 0)
(-0.318859 0.347818 0)
(-0.383959 0.394663 0)
(-0.445374 0.429479 0)
(-0.500299 0.450362 0)
(-0.54688 0.45697 0)
(-0.584237 0.450244 0)
(-0.612398 0.432013 0)
(-0.632165 0.404605 0)
(-0.644899 0.370482 0)
(-0.652252 0.331922 0)
(-0.655882 0.290799 0)
(-0.657244 0.248471 0)
(-0.657463 0.205796 0)
(-0.657324 0.163213 0)
(-0.657324 0.120878 0)
(-0.657742 0.0787629 0)
(-0.658711 0.0367357 0)
(-0.66034 -0.005373 0)
(-0.662784 -0.0477327 0)
(-0.666142 -0.0905249 0)
(-0.670588 -0.133954 0)
(-0.676348 -0.178251 0)
(-0.683631 -0.223667 0)
(-0.692499 -0.270444 0)
(-0.702677 -0.31868 0)
(-0.713285 -0.368087 0)
(-0.722486 -0.417618 0)
(-0.727188 -0.465022 0)
(-0.722972 -0.506455 0)
(-0.704501 -0.536378 0)
(-0.666519 -0.548059 0)
(-0.605441 -0.534887 0)
(-0.521211 -0.49244 0)
(-0.418783 -0.420876 0)
(-0.308382 -0.326748 0)
(-0.203731 -0.222933 0)
(-0.117985 -0.12545 0)
(-0.0584676 -0.0474211 0)
(-0.0236534 0.00620685 0)
(-0.00619529 0.0377333 0)
(0.000676382 0.0503706 0)
(0.00180891 0.0453429 0)
(0.000485725 0.0218685 0)
(-0.00335912 0.0149033 0)
(-0.028356 0.0528622 0)
(-0.0639724 0.102387 0)
(-0.10821 0.161566 0)
(-0.160273 0.226403 0)
(-0.219087 0.292839 0)
(-0.28213 0.35636 0)
(-0.345883 0.412042 0)
(-0.406646 0.455552 0)
(-0.461253 0.484073 0)
(-0.507478 0.496622 0)
(-0.54417 0.493872 0)
(-0.571231 0.477741 0)
(-0.589495 0.450905 0)
(-0.600482 0.41632 0)
(-0.60607 0.376776 0)
(-0.60814 0.334568 0)
(-0.608298 0.291335 0)
(-0.607729 0.248069 0)
(-0.607179 0.205234 0)
(-0.607038 0.162939 0)
(-0.607449 0.121103 0)
(-0.608408 0.0795587 0)
(-0.609847 0.0381264 0)
(-0.611727 -0.0033539 0)
(-0.614096 -0.0450108 0)
(-0.617 -0.0869533 0)
(-0.620586 -0.129289 0)
(-0.625107 -0.172173 0)
(-0.630901 -0.215839 0)
(-0.63836 -0.260629 0)
(-0.647835 -0.30696 0)
(-0.659423 -0.355209 0)
(-0.672596 -0.40543 0)
(-0.685706 -0.45686 0)
(-0.695505 -0.507229 0)
(-0.696931 -0.552115 0)
(-0.683496 -0.584708 0)
(-0.648567 -0.596443 0)
(-0.587495 -0.578801 0)
(-0.500107 -0.526234 0)
(-0.392616 -0.439503 0)
(-0.277761 -0.328032 0)
(-0.172104 -0.209297 0)
(-0.0902987 -0.103604 0)
(-0.0383297 -0.0253088 0)
(-0.0113435 0.0228785 0)
(-0.000158332 0.0453443 0)
(0.00229558 0.0453397 0)
(0.000720435 0.0231502 0)
(-0.00444399 0.0324149 0)
(-0.0345378 0.0861811 0)
(-0.0751407 0.144969 0)
(-0.123717 0.211913 0)
(-0.17893 0.283378 0)
(-0.239024 0.354233 0)
(-0.300893 0.418917 0)
(-0.360845 0.472126 0)
(-0.415418 0.509889 0)
(-0.461975 0.530247 0)
(-0.49899 0.533295 0)
(-0.526112 0.520817 0)
(-0.544077 0.495729 0)
(-0.554469 0.461473 0)
(-0.559336 0.421417 0)
(-0.560765 0.37838 0)
(-0.560532 0.334374 0)
(-0.559901 0.29058 0)
(-0.559613 0.247505 0)
(-0.559975 0.205215 0)
(-0.561017 0.163547 0)
(-0.562629 0.12227 0)
(-0.564651 0.0811676 0)
(-0.566929 0.0400733 0)
(-0.569361 -0.00112688 0)
(-0.571945 -0.0424993 0)
(-0.574701 -0.0840749 0)
(-0.577692 -0.125869 0)
(-0.581081 -0.167927 0)
(-0.585128 -0.210357 0)
(-0.590234 -0.253386 0)
(-0.596945 -0.297414 0)
(-0.605877 -0.343038 0)
(-0.617503 -0.390967 0)
(-0.63172 -0.441686 0)
(-0.647186 -0.494789 0)
(-0.660569 -0.547996 0)
(-0.666113 -0.59616 0)
(-0.656054 -0.630829 0)
(-0.622296 -0.641099 0)
(-0.559257 -0.616214 0)
(-0.467141 -0.549732 0)
(-0.354245 -0.444093 0)
(-0.23664 -0.313371 0)
(-0.133883 -0.181282 0)
(-0.0609099 -0.0724555 0)
(-0.0200623 -0.000231503 0)
(-0.00227296 0.0369184 0)
(0.00246769 0.0446135 0)
(0.000939678 0.0247471 0)
(-0.00528748 0.0533015 0)
(-0.0394185 0.123955 0)
(-0.0836812 0.191475 0)
(-0.134972 0.265092 0)
(-0.191417 0.341504 0)
(-0.250713 0.414554 0)
(-0.309443 0.477949 0)
(-0.364015 0.526394 0)
(-0.411397 0.556594 0)
(-0.449604 0.567645 0)
(-0.477887 0.560841 0)
(-0.496723 0.539111 0)
(-0.507609 0.506295 0)
(-0.512672 0.466377 0)
(-0.514174 0.422819 0)
(-0.514072 0.378142 0)
(-0.513754 0.333828 0)
(-0.513992 0.290491 0)
(-0.515056 0.24817 0)
(-0.516897 0.206624 0)
(-0.519323 0.165541 0)
(-0.522118 0.124649 0)
(-0.525098 0.083759 0)
(-0.528125 0.0427537 0)
(-0.531112 0.00157335 0)
(-0.534059 -0.039799 0)
(-0.536988 -0.0813487 0)
(-0.539891 -0.123048 0)
(-0.542823 -0.164866 0)
(-0.545897 -0.206793 0)
(-0.549339 -0.248882 0)
(-0.553543 -0.29133 0)
(-0.55913 -0.334584 0)
(-0.566933 -0.37942 0)
(-0.577808 -0.426899 0)
(-0.592121 -0.477999 0)
(-0.608872 -0.53274 0)
(-0.624616 -0.588776 0)
(-0.632779 -0.639914 0)
(-0.624137 -0.675468 0)
(-0.589085 -0.681569 0)
(-0.521467 -0.645032 0)
(-0.422768 -0.55929 0)
(-0.304599 -0.430432 0)
(-0.187261 -0.279811 0)
(-0.0928314 -0.138967 0)
(-0.0339646 -0.0352126 0)
(-0.0065073 0.0231477 0)
(0.00200988 0.0422945 0)
(0.00111599 0.0264088 0)
(-0.00576837 0.076657 0)
(-0.0425864 0.16485 0)
(-0.0890212 0.24036 0)
(-0.141362 0.319333 0)
(-0.197256 0.398881 0)
(-0.254039 0.472004 0)
(-0.308236 0.532011 0)
(-0.35655 0.573953 0)
(-0.396512 0.595447 0)
(-0.426848 0.596797 0)
(-0.447599 0.58055 0)
(-0.45999 0.550724 0)
(-0.466082 0.511878 0)
(-0.46824 0.468221 0)
(-0.468611 0.422958 0)
(-0.468754 0.378049 0)
(-0.469536 0.334329 0)
(-0.471238 0.291872 0)
(-0.473771 0.250367 0)
(-0.476886 0.209416 0)
(-0.480322 0.168682 0)
(-0.483883 0.127942 0)
(-0.487443 0.0870716 0)
(-0.490929 0.0460117 0)
(-0.494301 0.00474394 0)
(-0.497593 -0.0367247 0)
(-0.500833 -0.0783701 0)
(-0.503989 -0.120165 0)
(-0.507051 -0.162057 0)
(-0.510019 -0.203982 0)
(-0.512929 -0.24588 0)
(-0.515922 -0.287746 0)
(-0.519335 -0.329734 0)
(-0.523816 -0.37231 0)
(-0.53038 -0.416421 0)
(-0.540245 -0.463522 0)
(-0.554251 -0.51516 0)
(-0.571717 -0.571794 0)
(-0.588956 -0.630805 0)
(-0.598287 -0.684375 0)
(-0.588757 -0.718713 0)
(-0.549337 -0.716268 0)
(-0.474077 -0.661611 0)
(-0.367206 -0.549826 0)
(-0.245254 -0.393968 0)
(-0.133313 -0.22606 0)
(-0.0540351 -0.0858455 0)
(-0.0133526 0.00161634 0)
(0.000770547 0.0372028 0)
(0.00125325 0.0277768 0)
(-0.00581128 0.101347 0)
(-0.0438094 0.207385 0)
(-0.0908979 0.290046 0)
(-0.142718 0.372985 0)
(-0.196541 0.45393 0)
(-0.249533 0.525288 0)
(-0.298359 0.580286 0)
(-0.340156 0.614593 0)
(-0.373075 0.626917 0)
(-0.39656 0.618846 0)
(-0.411362 0.594157 0)
(-0.419278 0.557789 0)
(-0.422653 0.514723 0)
(-0.423789 0.469041 0)
(-0.424462 0.42341 0)
(-0.425709 0.379088 0)
(-0.427894 0.33629 0)
(-0.430932 0.294676 0)
(-0.434541 0.253755 0)
(-0.438427 0.213109 0)
(-0.442373 0.17247 0)
(-0.446262 0.1317 0)
(-0.450053 0.0907442 0)
(-0.453734 0.0495896 0)
(-0.457311 0.0082378 0)
(-0.460844 -0.0333026 0)
(-0.464374 -0.0750178 0)
(-0.467873 -0.1169 0)
(-0.471314 -0.158917 0)
(-0.474648 -0.201009 0)
(-0.477813 -0.243089 0)
(-0.48076 -0.285049 0)
(-0.483531 -0.326819 0)
(-0.486383 -0.368491 0)
(-0.489962 -0.410542 0)
(-0.495438 -0.454113 0)
(-0.504393 -0.501117 0)
(-0.518132 -0.553751 0)
(-0.536181 -0.612858 0)
(-0.554284 -0.675099 0)
(-0.563182 -0.73004 0)
(-0.549901 -0.759546 0)
(-0.502406 -0.741764 0)
(-0.416386 -0.66015 0)
(-0.300958 -0.514934 0)
(-0.179263 -0.331164 0)
(-0.0804972 -0.154845 0)
(-0.0231562 -0.030474 0)
(-0.00128362 0.0280073 0)
(0.00137085 0.0284739 0)
(-0.00539313 0.12613 0)
(-0.0430321 0.250054 0)
(-0.0893312 0.339044 0)
(-0.139251 0.424626 0)
(-0.189805 0.505445 0)
(-0.238159 0.573595 0)
(-0.281262 0.622499 0)
(-0.316758 0.648642 0)
(-0.343422 0.651928 0)
(-0.361346 0.63524 0)
(-0.371841 0.603462 0)
(-0.377036 0.562203 0)
(-0.379287 0.516535 0)
(-0.380591 0.470113 0)
(-0.382232 0.424902 0)
(-0.384743 0.38146 0)
(-0.388109 0.339505 0)
(-0.392046 0.298463 0)
(-0.396233 0.25781 0)
(-0.400431 0.217204 0)
(-0.404515 0.176481 0)
(-0.408458 0.135588 0)
(-0.412283 0.0945227 0)
(-0.416019 0.0532939 0)
(-0.419691 0.0119055 0)
(-0.423372 -0.0296441 0)
(-0.427112 -0.0713555 0)
(-0.430896 -0.113245 0)
(-0.4347 -0.155307 0)
(-0.438483 -0.197519 0)
(-0.442162 -0.239819 0)
(-0.445623 -0.282099 0)
(-0.448742 -0.324206 0)
(-0.451463 -0.365995 0)
(-0.453954 -0.407491 0)
(-0.456857 -0.449193 0)
(-0.461516 -0.492491 0)
(-0.469899 -0.539887 0)
(-0.483735 -0.594327 0)
(-0.502504 -0.656831 0)
(-0.520825 -0.722444 0)
(-0.527188 -0.776522 0)
(-0.506454 -0.795044 0)
(-0.446669 -0.751879 0)
(-0.347564 -0.632383 0)
(-0.225884 -0.448071 0)
(-0.112298 -0.242516 0)
(-0.036394 -0.0761172 0)
(-0.00422639 0.0132082 0)
(0.00146026 0.028091 0)
(-0.00453873 0.149766 0)
(-0.0403475 0.291419 0)
(-0.084564 0.386033 0)
(-0.131444 0.473112 0)
(-0.17786 0.552592 0)
(-0.221106 0.616541 0)
(-0.258511 0.658791 0)
(-0.288242 0.676775 0)
(-0.309642 0.671627 0)
(-0.323331 0.647452 0)
(-0.330979 0.610048 0)
(-0.334804 0.565403 0)
(-0.336954 0.518385 0)
(-0.338993 0.472026 0)
(-0.341717 0.42755 0)
(-0.345265 0.384924 0)
(-0.3494 0.343542 0)
(-0.35379 0.302754 0)
(-0.358168 0.262106 0)
(-0.362394 0.221372 0)
(-0.366435 0.180486 0)
(-0.370326 0.139454 0)
(-0.374127 0.0983022 0)
(-0.377882 0.0570409 0)
(-0.381616 0.015665 0)
(-0.385396 -0.0258405 0)
(-0.389282 -0.0674879 0)
(-0.393264 -0.109311 0)
(-0.397329 -0.151329 0)
(-0.401453 -0.193549 0)
(-0.40558 -0.235956 0)
(-0.409611 -0.278489 0)
(-0.413389 -0.32102 0)
(-0.416722 -0.363349 0)
(-0.419466 -0.405249 0)
(-0.421715 -0.446677 0)
(-0.424137 -0.488196 0)
(-0.428303 -0.531584 0)
(-0.436618 -0.580141 0)
(-0.451143 -0.637635 0)
(-0.470844 -0.704711 0)
(-0.488314 -0.773162 0)
(-0.489029 -0.821768 0)
(-0.456104 -0.819184 0)
(-0.379937 -0.736797 0)
(-0.267855 -0.568293 0)
(-0.146873 -0.34591 0)
(-0.0533815 -0.137525 0)
(-0.00822328 -0.00882691 0)
(0.00147349 0.0261722 0)
(-0.00331081 0.171113 0)
(-0.0359578 0.330186 0)
(-0.0769895 0.429905 0)
(-0.119944 0.517586 0)
(-0.161647 0.594869 0)
(-0.199619 0.654069 0)
(-0.231606 0.689578 0)
(-0.256271 0.699838 0)
(-0.273433 0.687178 0)
(-0.284075 0.656783 0)
(-0.290022 0.615133 0)
(-0.293382 0.568322 0)
(-0.295955 0.520795 0)
(-0.298856 0.474884 0)
(-0.302473 0.43114 0)
(-0.306698 0.389095 0)
(-0.311215 0.347987 0)
(-0.315733 0.3072 0)
(-0.320084 0.266397 0)
(-0.324218 0.225466 0)
(-0.328169 0.184412 0)
(-0.332003 0.143273 0)
(-0.335793 0.102076 0)
(-0.339581 0.0608231 0)
(-0.343379 0.0194962 0)
(-0.347247 -0.0219322 0)
(-0.351246 -0.0634823 0)
(-0.355374 -0.1052 0)
(-0.359615 -0.147117 0)
(-0.363963 -0.189262 0)
(-0.368391 -0.231655 0)
(-0.372836 -0.274286 0)
(-0.377184 -0.317097 0)
(-0.381245 -0.359939 0)
(-0.38477 -0.402548 0)
(-0.387535 -0.444613 0)
(-0.389589 -0.486035 0)
(-0.391689 -0.527547 0)
(-0.395746 -0.571554 0)
(-0.404674 -0.622465 0)
(-0.420625 -0.684795 0)
(-0.441197 -0.757533 0)
(-0.455704 -0.826403 0)
(-0.446126 -0.860585 0)
(-0.395519 -0.821255 0)
(-0.30063 -0.682985 0)
(-0.18068 -0.459359 0)
(-0.0735706 -0.215051 0)
(-0.0135203 -0.0398818 0)
(0.00138893 0.0222371 0)
(-0.00179834 0.189191 0)
(-0.0301348 0.365237 0)
(-0.0670814 0.469775 0)
(-0.10546 0.557449 0)
(-0.142124 0.632038 0)
(-0.174866 0.686346 0)
(-0.20186 0.715421 0)
(-0.2222 0.718703 0)
(-0.236057 0.69962 0)
(-0.244611 0.664258 0)
(-0.249662 0.619542 0)
(-0.253065 0.571454 0)
(-0.256227 0.523899 0)
(-0.259862 0.478528 0)
(-0.264077 0.43535 0)
(-0.268643 0.393621 0)
(-0.273261 0.352545 0)
(-0.277724 0.311604 0)
(-0.281955 0.270583 0)
(-0.285974 0.229457 0)
(-0.289848 0.188271 0)
(-0.293652 0.147069 0)
(-0.297455 0.105868 0)
(-0.301293 0.0646575 0)
(-0.305168 0.023405 0)
(-0.309121 -0.0179267 0)
(-0.313225 -0.0593622 0)
(-0.317481 -0.100957 0)
(-0.321862 -0.142748 0)
(-0.326373 -0.184777 0)
(-0.331001 -0.227081 0)
(-0.335715 -0.26969 0)
(-0.34045 -0.312603 0)
(-0.345075 -0.355757 0)
(-0.349371 -0.398968 0)
(-0.353031 -0.441898 0)
(-0.355766 -0.484133 0)
(-0.35763 -0.525572 0)
(-0.359587 -0.567317 0)
(-0.364057 -0.612822 0)
(-0.374488 -0.667966 0)
(-0.392559 -0.737416 0)
(-0.413069 -0.815828 0)
(-0.420649 -0.8785 0)
(-0.394427 -0.882307 0)
(-0.321319 -0.784648 0)
(-0.210155 -0.575807 0)
(-0.0953651 -0.306657 0)
(-0.0203412 -0.08163 0)
(0.00124879 0.0158024 0)
(-0.00010555 0.203225 0)
(-0.0231849 0.395651 0)
(-0.0553376 0.504972 0)
(-0.0886945 0.592326 0)
(-0.120176 0.664052 0)
(-0.147867 0.713671 0)
(-0.170342 0.736918 0)
(-0.187046 0.734166 0)
(-0.198374 0.709799 0)
(-0.205546 0.670609 0)
(-0.210198 0.623759 0)
(-0.213861 0.574979 0)
(-0.217561 0.527608 0)
(-0.221703 0.482704 0)
(-0.226228 0.439877 0)
(-0.230882 0.398241 0)
(-0.23543 0.357044 0)
(-0.239751 0.315882 0)
(-0.243841 0.274643 0)
(-0.247756 0.233358 0)
(-0.251575 0.192087 0)
(-0.255367 0.150865 0)
(-0.259195 0.109696 0)
(-0.263089 0.0685541 0)
(-0.26704 0.0273967 0)
(-0.271075 -0.0138222 0)
(-0.275282 -0.0551287 0)
(-0.279665 -0.0965881 0)
(-0.284185 -0.138242 0)
(-0.288848 -0.180136 0)
(-0.293645 -0.22232 0)
(-0.298562 -0.264839 0)
(-0.303564 -0.307734 0)
(-0.308577 -0.351008 0)
(-0.313454 -0.394583 0)
(-0.317936 -0.43822 0)
(-0.321659 -0.481474 0)
(-0.324293 -0.523827 0)
(-0.325978 -0.565298 0)
(-0.328077 -0.607749 0)
(-0.333735 -0.656321 0)
(-0.346761 -0.718551 0)
(-0.36714 -0.797349 0)
(-0.384793 -0.878021 0)
(-0.378919 -0.91995 0)
(-0.328987 -0.868173 0)
(-0.232548 -0.688245 0)
(-0.116611 -0.408357 0)
(-0.0286857 -0.135219 0)
(0.0011154 0.00635711 0)
(0.00165791 0.212658 0)
(-0.0154247 0.420696 0)
(-0.0422403 0.535005 0)
(-0.0702894 0.62201 0)
(-0.0965744 0.69099 0)
(-0.119456 0.736393 0)
(-0.13787 0.75463 0)
(-0.151523 0.746888 0)
(-0.160914 0.718343 0)
(-0.167176 0.676302 0)
(-0.17169 0.628013 0)
(-0.175641 0.578888 0)
(-0.179728 0.53174 0)
(-0.184139 0.487157 0)
(-0.188744 0.444486 0)
(-0.193318 0.40279 0)
(-0.197702 0.361396 0)
(-0.20185 0.320007 0)
(-0.205798 0.278584 0)
(-0.209622 0.237187 0)
(-0.213394 0.195876 0)
(-0.217176 0.15467 0)
(-0.221021 0.113559 0)
(-0.22496 0.0725087 0)
(-0.228979 0.0314671 0)
(-0.233087 -0.00961977 0)
(-0.237392 -0.0507785 0)
(-0.24191 -0.0920865 0)
(-0.246581 -0.133589 0)
(-0.251409 -0.175337 0)
(-0.256386 -0.217383 0)
(-0.261502 -0.259782 0)
(-0.266736 -0.302593 0)
(-0.272048 -0.345864 0)
(-0.277351 -0.389599 0)
(-0.282468 -0.43368 0)
(-0.287093 -0.477777 0)
(-0.290802 -0.521299 0)
(-0.293266 -0.563659 0)
(-0.294867 -0.605277 0)
(-0.297648 -0.649482 0)
(-0.305647 -0.703917 0)
(-0.322314 -0.777061 0)
(-0.343668 -0.865384 0)
(-0.352544 -0.936907 0)
(-0.324439 -0.93117 0)
(-0.246341 -0.790812 0)
(-0.135259 -0.515108 0)
(-0.0381644 -0.200421 0)
(0.000966701 -0.00656728 0)
(0.00338614 0.217179 0)
(-0.00716297 0.439787 0)
(-0.0282379 0.559531 0)
(-0.0508081 0.646412 0)
(-0.0719575 0.712998 0)
(-0.0902817 0.754858 0)
(-0.10503 0.769032 0)
(-0.11609 0.75738 0)
(-0.123961 0.725684 0)
(-0.129596 0.681601 0)
(-0.134073 0.632367 0)
(-0.13824 0.583071 0)
(-0.142534 0.536094 0)
(-0.147012 0.491678 0)
(-0.151529 0.449014 0)
(-0.155917 0.407172 0)
(-0.160089 0.365562 0)
(-0.164049 0.323972 0)
(-0.167856 0.28241 0)
(-0.171586 0.240947 0)
(-0.175304 0.199632 0)
(-0.179061 0.158471 0)
(-0.182905 0.117442 0)
(-0.186872 0.0765053 0)
(-0.190944 0.0356039 0)
(-0.195109 -0.00532471 0)
(-0.199503 -0.04631 0)
(-0.204161 -0.0874416 0)
(-0.208996 -0.128772 0)
(-0.214011 -0.170355 0)
(-0.219196 -0.212247 0)
(-0.224538 -0.254506 0)
(-0.230022 -0.297199 0)
(-0.235624 -0.340399 0)
(-0.24129 -0.38416 0)
(-0.24691 -0.428466 0)
(-0.252267 -0.473126 0)
(-0.256991 -0.517659 0)
(-0.260608 -0.5613 0)
(-0.262886 -0.603541 0)
(-0.264705 -0.645806 0)
(-0.269157 -0.694045 0)
(-0.281024 -0.758934 0)
(-0.301482 -0.846544 0)
(-0.319258 -0.93757 0)
(-0.309705 -0.973711 0)
(-0.251285 -0.87939 0)
(-0.149827 -0.621783 0)
(-0.0480478 -0.275478 0)
(0.000662804 -0.0234145 0)
(0.00493768 0.216602 0)
(0.00129512 0.452583 0)
(-0.0137296 0.578291 0)
(-0.0307309 0.665521 0)
(-0.0468385 0.730242 0)
(-0.0608314 0.769365 0)
(-0.0722244 0.780497 0)
(-0.0810167 0.766 0)
(-0.0876309 0.732086 0)
(-0.0927828 0.686624 0)
(-0.0972229 0.636788 0)
(-0.101495 0.587391 0)
(-0.105833 0.540492 0)
(-0.11022 0.496108 0)
(-0.114533 0.453352 0)
(-0.118669 0.411327 0)
(-0.122598 0.369517 0)
(-0.126357 0.327768 0)
(-0.130012 0.286113 0)
(-0.133634 0.244624 0)
(-0.137277 0.203338 0)
(-0.140987 0.162248 0)
(-0.144806 0.121324 0)
(-0.148778 0.0805235 0)
(-0.152888 0.0397921 0)
(-0.157092 -0.000941322 0)
(-0.161561 -0.0417235 0)
(-0.166361 -0.0826438 0)
(-0.171372 -0.123773 0)
(-0.176594 -0.165165 0)
(-0.182014 -0.206878 0)
(-0.187618 -0.248974 0)
(-0.193392 -0.291523 0)
(-0.199315 -0.334609 0)
(-0.205353 -0.378317 0)
(-0.211434 -0.422698 0)
(-0.21741 -0.46768 0)
(-0.223006 -0.512941 0)
(-0.227781 -0.55778 0)
(-0.231255 -0.601288 0)
(-0.233479 -0.643459 0)
(-0.236243 -0.687907 0)
(-0.24399 -0.744697 0)
(-0.26109 -0.826183 0)
(-0.282706 -0.926895 0)
(-0.287435 -0.997722 0)
(-0.248152 -0.951731 0)
(-0.15958 -0.723886 0)
(-0.0575041 -0.357632 0)
(-5.40477e-06 -0.0446093 0)
(0.00615785 0.211156 0)
(0.00958661 0.458641 0)
(0.000960288 0.591197 0)
(-0.0104579 0.679346 0)
(-0.0216233 0.742873 0)
(-0.0314606 0.780145 0)
(-0.0397119 0.789281 0)
(-0.0464383 0.772974 0)
(-0.0519368 0.737688 0)
(-0.0566507 0.691399 0)
(-0.0610045 0.641201 0)
(-0.0652675 0.591714 0)
(-0.0695156 0.544794 0)
(-0.073696 0.500334 0)
(-0.0777264 0.457427 0)
(-0.0815641 0.415217 0)
(-0.0852242 0.37324 0)
(-0.0887611 0.331379 0)
(-0.092242 0.289676 0)
(-0.0957289 0.248197 0)
(-0.0992713 0.206969 0)