/*--------------------------------*- C++ -*----------------------------------*\
  =========                 |
  \\      /  F ield         | OpenFOAM: The Open Source CFD Toolbox
   \\    /   O peration     | Website:  https://openfoam.org
    \\  /    A nd           | Version:  7
     \\/     M anipulation  |
\*---------------------------------------------------------------------------*/
FoamFile
{
    version     2.0;
    format      ascii;
    class       volScalarField;
    location    "1450";
    object      p;
}
// * * * * * * * * * * * * * * * * * * * * * * * * * * * * * * * * * * * * * //

dimensions      [0 2 -2 0 0 0 0];

internalField   nonuniform List<scalar> 
2500
(
3.7297e-07
7.15445e-05
-8.32861e-06
-0.000307131
-0.000781521
-0.00136906
-0.00202957
-0.00275852
-0.00358159
-0.00453946
-0.00567219
-0.00700966
-0.00856878
-0.0103493
-0.0123277
-0.01445
-0.0166239
-0.0187179
-0.0205671
-0.0219894
-0.02281
-0.0228896
-0.0221529
-0.0206163
-0.0184058
-0.0157476
-0.0129633
-0.0104702
-0.00873021
-0.00818092
-0.00915521
-0.0117897
-0.0159718
-0.021406
-0.0276326
-0.0340902
-0.0402499
-0.0457111
-0.0502427
-0.05377
-0.0563428
-0.0580963
-0.0592049
-0.0598447
-0.0601675
-0.0602895
-0.0602885
-0.0602072
-0.0600679
-0.0599287
-6.85749e-05
4.28008e-06
-7.95077e-05
-0.000375957
-0.000828345
-0.00137251
-0.00197333
-0.00263224
-0.00337783
-0.00425041
-0.00528882
-0.00652298
-0.0079736
-0.00964843
-0.0115358
-0.013599
-0.0157671
-0.0179285
-0.0199305
-0.0215894
-0.0227128
-0.0231308
-0.0227296
-0.0214851
-0.0194924
-0.0169684
-0.0142502
-0.0117735
-0.0100187
-0.0094428
-0.0103942
-0.0130319
-0.0172718
-0.0227641
-0.0290066
-0.0354511
-0.0415435
-0.0468428
-0.0511101
-0.0543184
-0.0565856
-0.0580934
-0.0590352
-0.0595837
-0.0598752
-0.0600069
-0.0600408
-0.0600062
-0.0599046
-0.0597729
-1.85367e-05
5.01622e-05
-5.67484e-05
-0.000379217
-0.000831628
-0.00133822
-0.00186882
-0.00243622
-0.00308148
-0.00385216
-0.00479235
-0.00594242
-0.0073404
-0.00902073
-0.0110034
-0.0132773
-0.015782
-0.018396
-0.0209369
-0.0231782
-0.0248806
-0.0258303
-0.025876
-0.0249664
-0.0231939
-0.0207858
-0.0180793
-0.015508
-0.0135646
-0.0127292
-0.0133837
-0.0157261
-0.0197115
-0.0250377
-0.0311959
-0.0375647
-0.0435666
-0.0487592
-0.0528622
-0.0558102
-0.0577334
-0.0588775
-0.059496
-0.0597938
-0.0599152
-0.05995
-0.0599448
-0.0599092
-0.0598134
-0.059669
0.000228694
0.000266755
0.000102311
-0.000278996
-0.0007548
-0.00123613
-0.00170204
-0.00218463
-0.00274495
-0.00345406
-0.00438534
-0.00561826
-0.00723765
-0.0093205
-0.0119097
-0.0149852
-0.0184437
-0.0220972
-0.0256897
-0.0289306
-0.0315353
-0.0332647
-0.033954
-0.0335393
-0.0320925
-0.0298166
-0.0270241
-0.0241358
-0.0216465
-0.0200629
-0.0198227
-0.0212054
-0.0242594
-0.0287718
-0.034292
-0.0402169
-0.0459242
-0.0508948
-0.0548335
-0.0576508
-0.0593978
-0.0602863
-0.0605977
-0.0605919
-0.0604533
-0.0602917
-0.0601575
-0.0600516
-0.0599216
-0.0597567
0.000708007
0.000677891
0.000418704
-4.34758e-05
-0.000554688
-0.00102859
-0.00145968
-0.00190792
-0.002474
-0.00327989
-0.00446259
-0.00616993
-0.00854118
-0.011672
-0.0155765
-0.0201641
-0.0252384
-0.0305187
-0.0356742
-0.0403639
-0.0442736
-0.0471462
-0.0488028
-0.0491586
-0.0482439
-0.0462047
-0.0433056
-0.0399314
-0.0365545
-0.0336905
-0.0318316
-0.0313653
-0.0324932
-0.0351721
-0.039102
-0.0437773
-0.0485977
-0.0530027
-0.0565925
-0.0591799
-0.0607986
-0.0616051
-0.0617905
-0.0616052
-0.0612683
-0.060923
-0.0606431
-0.0604415
-0.0602652
-0.0600883
0.00146318
0.00132915
0.000949767
0.000398144
-0.000168022
-0.000674549
-0.00114611
-0.00169551
-0.00249203
-0.00374179
-0.00567044
-0.00849203
-0.0123623
-0.0173322
-0.023322
-0.0301236
-0.0374278
-0.0448631
-0.0520357
-0.058566
-0.0641173
-0.0684183
-0.0712806
-0.0726061
-0.0723936
-0.0707268
-0.067803
-0.0639432
-0.059556
-0.0551172
-0.0511286
-0.0480611
-0.0462812
-0.0459754
-0.0470969
-0.0493618
-0.0523077
-0.0554053
-0.0581874
-0.0603442
-0.0617554
-0.0624699
-0.0626517
-0.0624635
-0.0620769
-0.0616512
-0.0612854
-0.061017
-0.0608116
-0.0606402
0.00253268
0.00226987
0.00176107
0.00110955
0.00045261
-0.000166638
-0.000836315
-0.00175207
-0.00318335
-0.00544027
-0.00882475
-0.0135661
-0.0197612
-0.0273433
-0.0360877
-0.0456462
-0.0555945
-0.0654793
-0.0748582
-0.0833319
-0.0905653
-0.0963017
-0.100369
-0.102676
-0.10322
-0.102048
-0.0992882
-0.0951749
-0.0900113
-0.0841697
-0.0780813
-0.0722132
-0.067024
-0.0629021
-0.0600987
-0.0586715
-0.0584623
-0.0591324
-0.0602538
-0.0614251
-0.0623583
-0.0629142
-0.0630916
-0.0629785
-0.0626788
-0.0623038
-0.0619532
-0.0616844
-0.0614887
-0.0613435
0.00392289
0.00352394
0.00288491
0.0021112
0.00129595
0.000411407
-0.000727693
-0.00243051
-0.00508209
-0.00907651
-0.0147293
-0.0221968
-0.031432
-0.0421906
-0.0540734
-0.066587
-0.0792045
-0.0914158
-0.102766
-0.112877
-0.121463
-0.128323
-0.133334
-0.136433
-0.137639
-0.13701
-0.13462
-0.130615
-0.125177
-0.118538
-0.110984
-0.102869
-0.0946029
-0.0866418
-0.0794469
-0.0734196
-0.0688234
-0.0657212
-0.0639563
-0.0631966
-0.063038
-0.0631195
-0.0631963
-0.0631621
-0.0630127
-0.0627898
-0.062556
-0.0623651
-0.0622249
-0.0621242
0.00557908
0.00505092
0.00427665
0.00333826
0.00224015
0.000844122
-0.001162
-0.00421418
-0.00878976
-0.0152971
-0.0239659
-0.0347817
-0.0474832
-0.0616125
-0.0765923
-0.0918058
-0.106664
-0.120657
-0.133374
-0.144518
-0.153891
-0.161383
-0.166937
-0.170532
-0.172213
-0.172077
-0.17017
-0.16657
-0.16136
-0.154644
-0.146548
-0.137243
-0.126974
-0.116088
-0.105053
-0.0944372
-0.0848598
-0.0768801
-0.0708608
-0.0668523
-0.0645758
-0.0635336
-0.0631923
-0.0631372
-0.0631378
-0.0631183
-0.0630736
-0.0630268
-0.0629817
-0.0629367
0.00735083
0.00670764
0.00578699
0.00460198
0.00302383
0.00077369
-0.0026005
-0.0076396
-0.0148432
-0.0245285
-0.0367317
-0.0511871
-0.0673789
-0.0846363
-0.102238
-0.119505
-0.135863
-0.150871
-0.16423
-0.175757
-0.185366
-0.193037
-0.198776
-0.202601
-0.204574
-0.20482
-0.203377
-0.200285
-0.195578
-0.189275
-0.181386
-0.171924
-0.16094
-0.148563
-0.13507
-0.120936
-0.10687
-0.0937673
-0.0825486
-0.0739202
-0.0681322
-0.0648848
-0.0634761
-0.0631147
-0.06319
-0.0633715
-0.0635516
-0.0636896
-0.0637647
-0.0637792
0.00898017
0.00824093
0.00713842
0.00557381
0.00324999
-0.00026605
-0.00554966
-0.0131831
-0.0235842
-0.0368658
-0.0527824
-0.0707735
-0.0900739
-0.109848
-0.129309
-0.147807
-0.164867
-0.180184
-0.193597
-0.205047
-0.214543
-0.222128
-0.227853
-0.231755
-0.233899
-0.234412
-0.233327
-0.230675
-0.226474
-0.220716
-0.213363
-0.204346
-0.193581
-0.181
-0.16662
-0.150638
-0.13355
-0.116223
-0.0998659
-0.0858158
-0.0751452
-0.0682475
-0.0646781
-0.0634096
-0.0633371
-0.0636803
-0.0640791
-0.0644147
-0.0646198
-0.0646946
0.0101136
0.00928322
0.00793173
0.00581023
0.00243409
-0.00277305
-0.0104591
-0.021153
-0.0350782
-0.0520497
-0.0714928
-0.0925589
-0.11429
-0.135776
-0.156271
-0.175247
-0.192387
-0.207547
-0.220698
-0.231875
-0.241145
-0.248582
-0.254249
-0.258188
-0.260449
-0.261145
-0.260299
-0.257945
-0.254102
-0.248769
-0.241913
-0.233456
-0.223272
-0.211195
-0.197056
-0.180766
-0.162448
-0.142615
-0.122319
-0.103138
-0.0868699
-0.074928
-0.0677296
-0.0645113
-0.0637951
-0.0641615
-0.064757
-0.0652849
-0.065622
-0.0657601
0.0103224
0.00938662
0.00769502
0.00481777
8.71179e-05
-0.00717974
-0.0176258
-0.0316221
-0.0491024
-0.0695308
-0.0920063
-0.115451
-0.138812
-0.161216
-0.182055
-0.200978
-0.217846
-0.232656
-0.245473
-0.256384
-0.265475
-0.272819
-0.278473
-0.282468
-0.284835
-0.285668
-0.284976
-0.282793
-0.279145
-0.274045
-0.267485
-0.259416
-0.249741
-0.238294
-0.224852
-0.209158
-0.19102
-0.170491
-0.148125
-0.125206
-0.103749
-0.0860443
-0.0737717
-0.067156
-0.0648791
-0.0649239
-0.0656686
-0.0663808
-0.0668582
-0.0670715
0.00916169
0.00809523
0.00596175
0.00214147
-0.00419005
-0.0137649
-0.0271328
-0.0444154
-0.0651973
-0.088587
-0.11341
-0.138457
-0.162691
-0.185376
-0.206096
-0.224691
-0.241174
-0.255636
-0.26819
-0.278935
-0.287948
-0.295285
-0.300986
-0.305067
-0.307543
-0.30849
-0.307907
-0.305823
-0.302265
-0.297255
-0.290803
-0.282897
-0.27349
-0.262476
-0.24967
-0.234799
-0.217529
-0.197575
-0.174929
-0.150222
-0.125056
-0.101989
-0.0838189
-0.0722951
-0.067108
-0.0661334
-0.0668647
-0.0677692
-0.0684114
-0.0687252
0.00625503
0.00502542
0.00235781
-0.00254729
-0.0106279
-0.0225986
-0.0388355
-0.0591477
-0.0827559
-0.108454
-0.134883
-0.160809
-0.185314
-0.207856
-0.228221
-0.246412
-0.262542
-0.276749
-0.289153
-0.299836
-0.308855
-0.316244
-0.322027
-0.326207
-0.328789
-0.329836
-0.329345
-0.327334
-0.323827
-0.318845
-0.312405
-0.304517
-0.295174
-0.284334
-0.271894
-0.257658
-0.241313
-0.222449
-0.200682
-0.175965
-0.149089
-0.122128
-0.0983067
-0.0808553
-0.0712225
-0.068101
-0.0684179
-0.0695117
-0.0703546
-0.0708112
0.00136322
-6.01824e-05
-0.00332564
-0.00938723
-0.0192445
-0.0335313
-0.0523899
-0.0752924
-0.101121
-0.128429
-0.155774
-0.181999
-0.206364
-0.228536
-0.248475
-0.266297
-0.282165
-0.296221
-0.308564
-0.319252
-0.328317
-0.335778
-0.341645
-0.345917
-0.348591
-0.349725
-0.349316
-0.347375
-0.343919
-0.338964
-0.332523
-0.324612
-0.315242
-0.304411
-0.292091
-0.278187
-0.262497
-0.24466
-0.224178
-0.200568
-0.173792
-0.144948
-0.116804
-0.0933737
-0.0780507
-0.0713514
-0.0704931
-0.0716735
-0.0727646
-0.0734203
-0.00556676
-0.00720506
-0.0110915
-0.0183017
-0.0298439
-0.0462212
-0.0673112
-0.0922589
-0.119665
-0.147931
-0.175628
-0.201739
-0.225727
-0.247445
-0.266981
-0.284511
-0.300205
-0.314183
-0.326514
-0.33723
-0.346344
-0.353864
-0.359798
-0.364141
-0.366888
-0.368092
-0.367758
-0.365888
-0.362493
-0.357585
-0.351171
-0.343262
-0.333868
-0.323004
-0.31068
-0.296883
-0.281528
-0.264398
-0.245073
-0.22294
-0.197417
-0.168576
-0.138083
-0.109707
-0.0882269
-0.0765611
-0.0734089
-0.074357
-0.0757553
-0.0766589
-0.0143872
-0.0162474
-0.0207348
-0.0290121
-0.0420494
-0.0601886
-0.0830401
-0.109461
-0.137843
-0.166523
-0.194155
-0.219896
-0.243399
-0.264665
-0.283857
-0.301168
-0.316748
-0.330684
-0.343015
-0.353752
-0.362897
-0.370453
-0.376428
-0.38082
-0.383621
-0.384881
-0.38461
-0.382807
-0.37948
-0.374636
-0.368279
-0.360412
-0.351042
-0.34018
-0.327845
-0.314062
-0.298833
-0.282083
-0.263562
-0.242756
-0.218902
-0.191351
-0.160498
-0.128993
-0.101909
-0.0843744
-0.0776253
-0.0777232
-0.0794505
-0.0806391
-0.0247704
-0.0268436
-0.0318743
-0.0410813
-0.0553591
-0.0748788
-0.0990053
-0.126363
-0.155211
-0.183892
-0.211184
-0.236422
-0.259418
-0.280272
-0.299181
-0.316326
-0.331822
-0.345723
-0.358044
-0.368782
-0.377934
-0.385503
-0.391499
-0.39592
-0.398761
-0.400062
-0.399846
-0.398102
-0.39484
-0.390066
-0.383783
-0.37599
-0.36669
-0.355884
-0.343588
-0.329831
-0.314655
-0.29808
-0.280025
-0.26018
-0.237879
-0.212177
-0.182466
-0.149881
-0.11865
-0.0951681
-0.0836483
-0.0820024
-0.0839559
-0.0854737
-0.0362546
-0.0385172
-0.0440069
-0.0539729
-0.0692083
-0.0897214
-0.11467
-0.142507
-0.171426
-0.199824
-0.22662
-0.251308
-0.273821
-0.294314
-0.312988
-0.329995
-0.345415
-0.359274
-0.371568
-0.382287
-0.391428
-0.398993
-0.404994
-0.409434
-0.412303
-0.413635
-0.413462
-0.411769
-0.408567
-0.40386
-0.397653
-0.389947
-0.380741
-0.370036
-0.357835
-0.344161
-0.329058
-0.312588
-0.294786
-0.275545
-0.254437
-0.23057
-0.202812
-0.170909
-0.137482
-0.108886
-0.0919062
-0.087488
-0.0893618
-0.0912824
-0.0483041
-0.0507198
-0.056569
-0.0671128
-0.083026
-0.104176
-0.129559
-0.157517
-0.186228
-0.214173
-0.240407
-0.264553
-0.286625
-0.306805
-0.325277
-0.342161
-0.357503
-0.371306
-0.383558
-0.394245
-0.403362
-0.410914
-0.416912
-0.421361
-0.424251
-0.425606
-0.425469
-0.423818
-0.420666
-0.416019
-0.409884
-0.402263
-0.39316
-0.382573
-0.370505
-0.356967
-0.341992
-0.325646
-0.308017
-0.289144
-0.268852
-0.246502
-0.220889
-0.190835
-0.157162
-0.125001
-0.102597
-0.0944599
-0.095761
-0.0981772
-0.0603686
-0.0628903
-0.0689953
-0.0799424
-0.0962798
-0.117763
-0.143275
-0.171096
-0.199425
-0.226837
-0.252503
-0.276146
-0.297828
-0.317735
-0.336029
-0.352794
-0.368053
-0.381792
-0.393992
-0.404639
-0.413728
-0.421263
-0.427254
-0.431708
-0.434613
-0.435983
-0.435876
-0.43426
-0.431149
-0.426553
-0.420479
-0.412935
-0.403928
-0.39346
-0.381537
-0.368166
-0.353368
-0.337197
-0.319748
-0.301138
-0.281385
-0.260161
-0.236487
-0.208812
-0.176452
-0.142611
-0.115572
-0.10311
-0.103262
-0.106215
-0.0719334
-0.0745102
-0.0807657
-0.091959
-0.108505
-0.13008
-0.155496
-0.183014
-0.210874
-0.237737
-0.26287
-0.286064
-0.307408
-0.327078
-0.34521
-0.361862
-0.377035
-0.390707
-0.402853
-0.413459
-0.42252
-0.430037
-0.436021
-0.440477
-0.443396
-0.444775
-0.444691
-0.443102
-0.440024
-0.435468
-0.429444
-0.421964
-0.413039
-0.40268
-0.390896
-0.377697
-0.3631
-0.347146
-0.329918
-0.311555
-0.292194
-0.271769
-0.24966
-0.224388
-0.194333
-0.160626
-0.130318
-0.113451
-0.111921
-0.115336
-0.0825795
-0.0851174
-0.0914397
-0.102741
-0.119319
-0.140804
-0.165974
-0.193097
-0.220463
-0.246808
-0.271469
-0.294278
-0.315334
-0.334799
-0.352785
-0.36933
-0.384422
-0.398029
-0.410125
-0.420696
-0.429734
-0.437238
-0.443215
-0.447674
-0.450602
-0.451987
-0.451921
-0.450352
-0.447297
-0.442769
-0.436782
-0.429349
-0.42049
-0.41022
-0.398557
-0.385517
-0.371119
-0.3554
-0.338429
-0.320338
-0.301313
-0.281475
-0.260555
-0.237415
-0.210088
-0.177958
-0.146023
-0.12524
-0.12164
-0.125298
-0.0919894
-0.0943345
-0.100657
-0.111959
-0.128431
-0.149695
-0.174524
-0.201217
-0.228111
-0.253998
-0.278259
-0.300749
-0.321566
-0.340858
-0.358717
-0.375167
-0.390186
-0.403739
-0.415796
-0.426341
-0.435365
-0.442863
-0.448839
-0.453301
-0.456238
-0.45763
-0.457574
-0.456018
-0.452976
-0.448463
-0.442496
-0.435092
-0.426275
-0.41607
-0.4045
-0.391593
-0.377375
-0.361882
-0.345178
-0.327381
-0.308689
-0.289325
-0.269299
-0.247904
-0.223294
-0.193673
-0.161718
-0.137948
-0.132076
-0.135679
-0.0999145
-0.101931
-0.108146
-0.119371
-0.135635
-0.156581
-0.181019
-0.207284
-0.233755
-0.259261
-0.283203
-0.305441
-0.326068
-0.345218
-0.362972
-0.379344
-0.394306
-0.407819
-0.419853
-0.430386
-0.439408
-0.446912
-0.452895
-0.457363
-0.460309
-0.461713
-0.461662
-0.460114
-0.457074
-0.452562
-0.446595
-0.439197
-0.430396
-0.420223
-0.408714
-0.395902
-0.381826
-0.366529
-0.350075
-0.332574
-0.314218
-0.295275
-0.275943
-0.255918
-0.233742
-0.207066
-0.176419
-0.150824
-0.142685
-0.14594
-0.106188
-0.107789
-0.113753
-0.124825
-0.140813
-0.161381
-0.185402
-0.211257
-0.237364
-0.262566
-0.286268
-0.308319
-0.328802
-0.347843
-0.365516
-0.381831
-0.396756
-0.410251
-0.422281
-0.432822
-0.441858
-0.44938
-0.455382
-0.459865
-0.462823
-0.464239
-0.46419
-0.462647
-0.459599
-0.455074
-0.44909
-0.441673
-0.432857
-0.42268
-0.411188
-0.398426
-0.384442
-0.369292
-0.353045
-0.335813
-0.317779
-0.299226
-0.280462
-0.261497
-0.241359
-0.217662
-0.189257
-0.163023
-0.152831
-0.155509
-0.110744
-0.11187
-0.117435
-0.128262
-0.143911
-0.16405
-0.187628
-0.213091
-0.238891
-0.263871
-0.287417
-0.309357
-0.329755
-0.348728
-0.36635
-0.382632
-0.397544
-0.411043
-0.423091
-0.433659
-0.442728
-0.450282
-0.456312
-0.460812
-0.463779
-0.465198
-0.465146
-0.463607
-0.460543
-0.45599
-0.449969
-0.442509
-0.433647
-0.42343
-0.411912
-0.399149
-0.385201
-0.370134
-0.354032
-0.337011
-0.319257
-0.301056
-0.282773
-0.264634
-0.246129
-0.225182
-0.199543
-0.173727
-0.161882
-0.163845
-0.113608
-0.11423
-0.11926
-0.129727
-0.144974
-0.164627
-0.187725
-0.21279
-0.238311
-0.263125
-0.286583
-0.308475
-0.32884
-0.34779
-0.365398
-0.381682
-0.396615
-0.410151
-0.422251
-0.43288
-0.442014
-0.449632
-0.455721
-0.460271
-0.463274
-0.464716
-0.46464
-0.463069
-0.459956
-0.455337
-0.449238
-0.441695
-0.43275
-0.422454
-0.410864
-0.398047
-0.384071
-0.369019
-0.352985
-0.336098
-0.318554
-0.300643
-0.282764
-0.265276
-0.248045
-0.229475
-0.206783
-0.182224
-0.169267
-0.170467
-0.114891
-0.115008
-0.119382
-0.129351
-0.144109
-0.163207
-0.185768
-0.210406
-0.235653
-0.260333
-0.283753
-0.305653
-0.326039
-0.345008
-0.36264
-0.378958
-0.393941
-0.407545
-0.419727
-0.430446
-0.439672
-0.44738
-0.453548
-0.458164
-0.461219
-0.4627
-0.462626
-0.461036
-0.457872
-0.453176
-0.446981
-0.439319
-0.430236
-0.419792
-0.408055
-0.395103
-0.381023
-0.365906
-0.349854
-0.333012
-0.315586
-0.297881
-0.280318
-0.263339
-0.247085
-0.230475
-0.210654
-0.187944
-0.174489
-0.174957
-0.114767
-0.114417
-0.118037
-0.127335
-0.141481
-0.159929
-0.181867
-0.206014
-0.230955
-0.255507
-0.278921
-0.300875
-0.321331
-0.340367
-0.358063
-0.374452
-0.38952
-0.403228
-0.415527
-0.426372
-0.435723
-0.443551
-0.449827
-0.454533
-0.457655
-0.459182
-0.459115
-0.457504
-0.454282
-0.449494
-0.443177
-0.435366
-0.426112
-0.415478
-0.403539
-0.390381
-0.376098
-0.360798
-0.344608
-0.327694
-0.310278
-0.292675
-0.275326
-0.258728
-0.243213
-0.228154
-0.210967
-0.190455
-0.177121
-0.176949
-0.113465
-0.11272
-0.115525
-0.123955
-0.137321
-0.154984
-0.176174
-0.199718
-0.224275
-0.248661
-0.27207
-0.294108
-0.314677
-0.333829
-0.351636
-0.36814
-0.383337
-0.397189
-0.409647
-0.420658
-0.430176
-0.438161
-0.444579
-0.449403
-0.452614
-0.454199
-0.454146
-0.452514
-0.449229
-0.444332
-0.437869
-0.429876
-0.420405
-0.409525
-0.397318
-0.383877
-0.369307
-0.353728
-0.337282
-0.320153
-0.302593
-0.284955
-0.267701
-0.251355
-0.23638
-0.222505
-0.207622
-0.189449
-0.176795
-0.17612
-0.11125
-0.110208
-0.112183
-0.11955
-0.131918
-0.148615
-0.168886
-0.191661
-0.215694
-0.239821
-0.263186
-0.285311
-0.306028
-0.325343
-0.343315
-0.359988
-0.375363
-0.389409
-0.402074
-0.413299
-0.423029
-0.431214
-0.437813
-0.442789
-0.446117
-0.447779
-0.447757
-0.446103
-0.442754
-0.437738
-0.431106
-0.422897
-0.413166
-0.401984
-0.389439
-0.375631
-0.360674
-0.3447
-0.327871
-0.310392
-0.292545
-0.274712
-0.257398
-0.24116
-0.226545
-0.213528
-0.20058
-0.184718
-0.173189
-0.172172
-0.1084
-0.107175
-0.108357
-0.114493
-0.125614
-0.141112
-0.16024
-0.182025
-0.205331
-0.229041
-0.252266
-0.274446
-0.295327
-0.314852
-0.333049
-0.349952
-0.365569
-0.379868
-0.392797
-0.404292
-0.414287
-0.422724
-0.429548
-0.434718
-0.438198
-0.439963
-0.439994
-0.438325
-0.434914
-0.429772
-0.422951
-0.414495
-0.40446
-0.39292
-0.379964
-0.365701
-0.350251
-0.333762
-0.31641
-0.298429
-0.280134
-0.261946
-0.244415
-0.228135
-0.213702
-0.201245
-0.18985
-0.176144
-0.166016
-0.164824
-0.105183
-0.103889
-0.104366
-0.109168
-0.118789
-0.132807
-0.150514
-0.171028
-0.193335
-0.216399
-0.239325
-0.261479
-0.282511
-0.302283
-0.320769
-0.337981
-0.353916
-0.368544
-0.381809
-0.393641
-0.403967
-0.412714
-0.419819
-0.42523
-0.428903
-0.430805
-0.430914
-0.429246
-0.425779
-0.420509
-0.413484
-0.404753
-0.394372
-0.382416
-0.368977
-0.354167
-0.338116
-0.320982
-0.302964
-0.284322
-0.265408
-0.246693
-0.228776
-0.212304
-0.19791
-0.185729
-0.175492
-0.163686
-0.155029
-0.153803
-0.101835
-0.100567
-0.100474
-0.10393
-0.111838
-0.124066
-0.140022
-0.158923
-0.179893
-0.202005
-0.224396
-0.246381
-0.267512
-0.28755
-0.306392
-0.324002
-0.340355
-0.355408
-0.3691
-0.381355
-0.392087
-0.401216
-0.408668
-0.414378
-0.418293
-0.420374
-0.420591
-0.418949
-0.415439
-0.41004
-0.4028
-0.39377
-0.383005
-0.370578
-0.356583
-0.341135
-0.324372
-0.306464
-0.287631
-0.268167
-0.248465
-0.229048
-0.210574
-0.19374
-0.179239
-0.167129
-0.157636
-0.147385
-0.140041
-0.138852
-0.098541
-0.0973697
-0.0968684
-0.0990711
-0.105138
-0.115277
-0.129106
-0.145994
-0.165221
-0.186002
-0.207545
-0.229146
-0.25027
-0.270562
-0.289818
-0.307926
-0.324815
-0.340416
-0.354652
-0.367436
-0.378673
-0.388272
-0.396148
-0.402225
-0.406443
-0.408752
-0.409118
-0.407531
-0.403996
-0.398477
-0.391017
-0.381667
-0.370482
-0.357533
-0.342912
-0.326738
-0.309153
-0.290344
-0.270554
-0.250111
-0.229457
-0.209172
-0.189975
-0.172618
-0.157827
-0.14565
-0.136479
-0.127364
-0.120951
-0.119742
-0.0954318
-0.0943966
-0.0936564
-0.0947923
-0.0990107
-0.106818
-0.118129
-0.132551
-0.149567
-0.168568
-0.188876
-0.209804
-0.230749
-0.251239
-0.270947
-0.289655
-0.307214
-0.323509
-0.338434
-0.351882
-0.363747
-0.373925
-0.38232
-0.388848
-0.393439
-0.396036
-0.3966
-0.395106
-0.391571
-0.385945
-0.378266
-0.368583
-0.356949
-0.343431
-0.328121
-0.311138
-0.292633
-0.272807
-0.251929
-0.230367
-0.208614
-0.187311
-0.167239
-0.149198
-0.133942
-0.121525
-0.112288
-0.103807
-0.0977477
-0.0962368
-0.0925848
-0.0917041
-0.0908785
-0.0911935
-0.0936824
-0.0990154
-0.107443
-0.118915
-0.133201
-0.14992
-0.168542
-0.18844
-0.208968
-0.229546
-0.249707
-0.269099
-0.287469
-0.304625
-0.32041
-0.334687
-0.347328
-0.358218
-0.367249
-0.374328
-0.379378
-0.382335
-0.383153
-0.381802
-0.378296
-0.372586
-0.364696
-0.354674
-0.34257
-0.328448
-0.312398
-0.294539
-0.275034
-0.254097
-0.232027
-0.209232
-0.18626
-0.163815
-0.142736
-0.12386
-0.107958
-0.0950459
-0.0854168
-0.076943
-0.0704827
-0.0679947
-0.0900325
-0.0893147
-0.0885264
-0.088279
-0.0892542
-0.0920948
-0.0973464
-0.105395
-0.116408
-0.130305
-0.146753
-0.165215
-0.185032
-0.20553
-0.226096
-0.246228
-0.265535
-0.28372
-0.300551
-0.315843
-0.329436
-0.341195
-0.351
-0.35875
-0.364359
-0.367761
-0.368905
-0.367755
-0.364318
-0.358555
-0.350474
-0.340119
-0.327538
-0.312793
-0.295973
-0.2772
-0.256643
-0.234538
-0.211212
-0.187113
-0.162846
-0.139168
-0.116966
-0.0971058
-0.0803502
-0.0666333
-0.0562969
-0.04704
-0.0393582
-0.0346157
-0.0877661
-0.087224
-0.0865633
-0.0859776
-0.0856874
-0.0861229
-0.0880211
-0.092241
-0.0994627
-0.110003
-0.123784
-0.140389
-0.15917
-0.179372
-0.200246
-0.221125
-0.241461
-0.260825
-0.278885
-0.295383
-0.310116
-0.322918
-0.333653
-0.34221
-0.348496
-0.352442
-0.353993
-0.353114
-0.349799
-0.344027
-0.335789
-0.325124
-0.312082
-0.296724
-0.279138
-0.25945
-0.237842
-0.214565
-0.189976
-0.164562
-0.138971
-0.114003
-0.0905755
-0.0695581
-0.0516869
-0.0368172
-0.0253978
-0.0144278
-0.00501252
0.00395894
-0.085729
-0.0853926
-0.0849295
-0.084157
-0.0828027
-0.0809699
-0.0794643
-0.0795884
-0.0826036
-0.0893228
-0.0999894
-0.114345
-0.131771
-0.151445
-0.172487
-0.194069
-0.215474
-0.236123
-0.255561
-0.27344
-0.289492
-0.303512
-0.315338
-0.324846
-0.331936
-0.336536
-0.338589
-0.338061
-0.334937
-0.329216
-0.320874
-0.309949
-0.296494
-0.28057
-0.26227
-0.241725
-0.219128
-0.194749
-0.168967
-0.142297
-0.115411
-0.0891259
-0.064352
-0.0419339
-0.0225607
-0.00604585
0.00704537
0.0207936
0.0317115
0.0475403
-0.0838
-0.0837245
-0.083517
-0.0826134
-0.0802812
-0.0762954
-0.0714488
-0.0674048
-0.0659994
-0.0685966
-0.0758254
-0.0876258
-0.103428
-0.122357
-0.143412
-0.165609
-0.188065
-0.210042
-0.23095
-0.250334
-0.267848
-0.283235
-0.296298
-0.306893
-0.314913
-0.320279
-0.322937
-0.32285
-0.320004
-0.314408
-0.306043
-0.294941
-0.28116
-0.264769
-0.245865
-0.224591
-0.201148
-0.175821
-0.149001
-0.121211
-0.0931139
-0.0654981
-0.0392172
-0.0150365
0.00644415
0.0254682
0.0414401
0.0594222
0.0717557
0.0982122
-0.0817848
-0.0820367
-0.0821179
-0.0810282
-0.0776623
-0.0715754
-0.0635418
-0.0554882
-0.0497375
-0.0481828
-0.0518656
-0.0609612
-0.0749755
-0.0929962
-0.113919
-0.136617
-0.160051
-0.183328
-0.205722
-0.226663
-0.245718
-0.262566
-0.276971
-0.288761
-0.297815
-0.304049
-0.307409
-0.307861
-0.30539
-0.300012
-0.291728
-0.280568
-0.266594
-0.249889
-0.230559
-0.208757
-0.184694
-0.158659
-0.131037
-0.102324
-0.0731329
-0.044164
-0.01615
0.0102918
0.0347271
0.0575863
0.0784782
0.103249
0.120246
0.163288
-0.0794696
-0.0800772
-0.0804444
-0.0790042
-0.0744052
-0.0661952
-0.0552164
-0.0435568
-0.0338762
-0.0284916
-0.0288229
-0.0352927
-0.0475091
-0.06455
-0.0852312
-0.108307
-0.1326
-0.157081
-0.180891
-0.203352
-0.22394
-0.242267
-0.258048
-0.271084
-0.281234
-0.288408
-0.292549
-0.293628
-0.291635
-0.286584
-0.278503
-0.267429
-0.253437
-0.236623
-0.217104
-0.195041
-0.170646
-0.144199
-0.116052
-0.0866372
-0.0564592
-0.0260649
0.00401123
0.0333824
0.0618677
0.0902171
0.118436
0.153617
0.183394
0.248078
-0.0769585
-0.0778074
-0.0783053
-0.07626
-0.0702106
-0.0597827
-0.0461151
-0.0314586
-0.0185819
-0.0100462
-0.00755727
-0.0117522
-0.0223529
-0.0384593
-0.0588454
-0.0821815
-0.107185
-0.132708
-0.157785
-0.181635
-0.203653
-0.223383
-0.240494
-0.254752
-0.265999
-0.274134
-0.2791
-0.280869
-0.279442
-0.274838
-0.267092
-0.256257
-0.242428
-0.225722
-0.206268
-0.184224
-0.15979
-0.133216
-0.104794
-0.0748541
-0.0437393
-0.0117665
0.0208362
0.0540622
0.0881559
0.124309
0.162834
0.212489
0.25999
0.338556
-0.0755368
-0.0762349
-0.0763631
-0.0731388
-0.0652588
-0.0526065
-0.036527
-0.0195303
-0.00439362
0.00638134
0.0108964
0.00837009
-0.000996742
-0.0163427
-0.0364438
-0.0599331
-0.0854618
-0.111803
-0.137907
-0.162915
-0.18615
-0.207102
-0.225392
-0.240758
-0.253021
-0.26207
-0.267844
-0.270319
-0.269505
-0.265433
-0.258159
-0.247726
-0.234219
-0.217786
-0.198575
-0.176744
-0.152469
-0.12595
-0.0974012
-0.0670211
-0.0349512
-0.00119889
0.0344673
0.072714
0.114708
0.16278
0.217998
0.289121
0.349486
0.424456
-0.07971
-0.0790107
-0.0774021
-0.0717925
-0.0612453
-0.0460064
-0.0276801
-0.00886848
0.00764835
0.0196584
0.0253967
0.023862
0.0152416
0.000374583
-0.0195396
-0.0431324
-0.0690268
-0.0959528
-0.122808
-0.14868
-0.172842
-0.194739
-0.21396
-0.230214
-0.243308
-0.253119
-0.259583
-0.26268
-0.262422
-0.258849
-0.252023
-0.242035
-0.228962
-0.212886
-0.193964
-0.172374
-0.148279
-0.121834
-0.0931694
-0.0623481
-0.0292859
0.00638216
0.0455048
0.0897962
0.142175
0.207864
0.291657
0.403576
0.495837
0.603417
-0.103142
-0.0953224
-0.0868768
-0.0760884
-0.0617247
-0.0433926
-0.0227366
-0.00233554
0.0153627
0.028147
0.0343276
0.0332171
0.0250069
0.0104871
-0.00918833
-0.032685
-0.0586418
-0.0857843
-0.112991
-0.139321
-0.164016
-0.18649
-0.206306
-0.223151
-0.236815
-0.247165
-0.254132
-0.257691
-0.257857
-0.25467
-0.248198
-0.238524
-0.225748
-0.20998
-0.191343
-0.169979
-0.146036
-0.119638
-0.0908505
-0.0596096
-0.0256138
0.0118806
0.0543884
0.10483
0.168335
0.254395
0.375686
0.555731
0.767694
1.10785
-0.189978
-0.112222
-0.0806352
-0.0714064
-0.0581282
-0.0387537
-0.0170549
0.00395368
0.0217625
0.034196
0.0398488
0.0382376
0.0296346
0.014859
-0.00494219
-0.0284712
-0.0544127
-0.0815314
-0.108732
-0.135089
-0.159849
-0.182424
-0.202371
-0.219371
-0.233206
-0.243738
-0.250892
-0.254642
-0.254998
-0.252001
-0.245716
-0.236228
-0.223635
-0.208047
-0.189585
-0.168381
-0.144569
-0.118244
-0.0894139
-0.0579183
-0.0232909
0.0154919
0.0604223
0.115243
0.186512
0.286573
0.435318
0.680379
1.07938
1.82854
)
;

boundaryField
{
    movingWall
    {
        type            zeroGradient;
    }
    fixedWalls
    {
        type            zeroGradient;
    }
    frontAndBack
    {
        type            empty;
    }
}


// ************************************************************************* //
