/*--------------------------------*- C++ -*----------------------------------*\
  =========                 |
  \\      /  F ield         | OpenFOAM: The Open Source CFD Toolbox
   \\    /   O peration     | Website:  https://openfoam.org
    \\  /    A nd           | Version:  7
     \\/     M anipulation  |
\*---------------------------------------------------------------------------*/
FoamFile
{
    version     2.0;
    format      ascii;
    class       surfaceScalarField;
    location    "1450";
    object      phi;
}
// * * * * * * * * * * * * * * * * * * * * * * * * * * * * * * * * * * * * * //

dimensions      [0 3 -1 0 0 0 0];

internalField   nonuniform List<scalar> 
4900
(
1.69729e-06
-1.70634e-06
6.22282e-06
-4.5256e-06
1.1716e-05
-5.49322e-06
1.65022e-05
-4.78626e-06
1.97497e-05
-3.24751e-06
2.13888e-05
-1.63913e-06
2.17673e-05
-3.78529e-07
2.12618e-05
5.05516e-07
2.00154e-05
1.24636e-06
1.78641e-05
2.15121e-06
1.44148e-05
3.44925e-06
9.18062e-06
5.23416e-06
1.6704e-06
7.51018e-06
-8.56783e-06
1.02382e-05
-2.18835e-05
1.33156e-05
-3.84393e-05
1.65558e-05
-5.81394e-05
1.97001e-05
-8.05482e-05
2.24088e-05
-0.000104827
2.42789e-05
-0.000129719
2.48919e-05
-0.000153596
2.38773e-05
-0.000174573
2.09762e-05
-0.000190666
1.60933e-05
-0.000200001
9.33557e-06
-0.000201059
1.05747e-06
-0.000192898
-8.16112e-06
-0.000175274
-1.76236e-05
-0.00014871
-2.65646e-05
-0.000114499
-3.42111e-05
-7.46673e-05
-3.98314e-05
-3.18679e-05
-4.27994e-05
1.07841e-05
-4.2652e-05
5.00322e-05
-3.92481e-05
8.30255e-05
-3.29933e-05
0.000107588
-2.45629e-05
0.000122457
-1.48689e-05
0.000127519
-5.06147e-06
0.000123855
3.66358e-06
0.000113465
1.03906e-05
9.87387e-05
1.47258e-05
8.20208e-05
1.67179e-05
6.52482e-05
1.67727e-05
4.9766e-05
1.54822e-05
3.63081e-05
1.34579e-05
2.51017e-05
1.12064e-05
1.60388e-05
9.06287e-06
8.89261e-06
7.14616e-06
3.59385e-06
5.29874e-06
5.0503e-07
3.08879e-06
5.05026e-07
4.47362e-06
-6.18003e-06
1.38476e-05
-1.38997e-05
2.43099e-05
-1.59557e-05
3.28984e-05
-1.33748e-05
3.8001e-05
-8.35025e-06
3.92275e-05
-2.86569e-06
3.68596e-05
1.9893e-06
3.12041e-05
6.16091e-06
2.2153e-05
1.02974e-05
9.0783e-06
1.52258e-05
-9.01708e-06
2.15445e-05
-3.32338e-05
2.94508e-05
-6.44716e-05
3.87479e-05
-0.00010317
4.89364e-05
-0.000149099
5.92447e-05
-0.000201199
6.86554e-05
-0.000257522
7.60235e-05
-0.000315359
8.02459e-05
-0.000371513
8.04321e-05
-0.000422647
7.60258e-05
-0.000465624
6.68543e-05
-0.000497765
5.31174e-05
-0.000517016
3.53445e-05
-0.000522036
1.43556e-05
-0.000512281
-8.69775e-06
-0.000487843
-3.2599e-05
-0.000449359
-5.61082e-05
-0.000398031
-7.78919e-05
-0.000335691
-9.65512e-05
-0.000264813
-0.00011071
-0.000188486
-0.000119126
-0.000110286
-0.000120852
-3.40941e-05
-0.00011544
3.60146e-05
-0.000103102
9.63502e-05
-8.48986e-05
0.000144098
-6.26169e-05
0.000177336
-3.82993e-05
0.000195274
-1.42747e-05
0.000198507
7.15733e-06
0.000189134
2.40991e-05
0.000170303
3.5549e-05
0.000145605
4.14705e-05
0.00011845
4.26374e-05
9.16025e-05
4.03051e-05
6.69299e-05
3.5879e-05
4.54187e-05
3.0574e-05
2.74589e-05
2.51059e-05
1.33347e-05
1.94229e-05
3.75528e-06
1.26681e-05
4.2603e-06
5.98682e-06
-1.21669e-05
1.73364e-05
-2.52493e-05
2.88007e-05
-2.742e-05
3.68213e-05
-2.13955e-05
3.95366e-05
-1.10656e-05
3.63577e-05
3.13161e-07
2.72215e-05
1.11253e-05
1.1921e-05
2.14614e-05
-1.03088e-05
3.25271e-05
-4.07448e-05
4.56617e-05
-8.07465e-05
6.15462e-05
-0.000131237
7.99414e-05
-0.000192282
9.97926e-05
-0.000262777
0.000119431
-0.000340376
0.000136843
-0.000421722
0.000150002
-0.000502899
0.000157201
-0.000579954
0.000157301
-0.000649341
0.00014982
-0.000708199
0.000134884
-0.000754442
0.000113097
-0.000786714
8.53891e-05
-0.000804253
5.28829e-05
-0.000806707
1.68098e-05
-0.00079394
-2.14645e-05
-0.000765967
-6.05722e-05
-0.000723101
-9.89749e-05
-0.000666076
-0.000134916
-0.000596132
-0.000166496
-0.000515111
-0.000191731
-0.000425536
-0.000208701
-0.000330608
-0.000215781
-0.00023411
-0.000211937
-0.000140177
-0.000197035
-5.30391e-05
-0.000172037
2.33402e-05
-0.000138996
8.59887e-05
-0.000100948
0.000133115
-6.14013e-05
0.000163753
-2.34809e-05
0.000178047
9.80579e-06
0.000177533
3.60624e-05
0.000165016
5.39874e-05
0.000144044
6.36095e-05
0.000118299
6.60506e-05
9.104e-05
6.31375e-05
6.47423e-05
5.68716e-05
4.10642e-05
4.87839e-05
2.12072e-05
3.92799e-05
6.60695e-06
2.72683e-05
1.08672e-05
6.50843e-06
-1.86753e-05
1.75966e-05
-3.63375e-05
2.69516e-05
-3.67751e-05
3.07588e-05
-2.52027e-05
2.72119e-05
-7.51878e-06
1.56179e-05
1.19071e-05
-4.55874e-06
3.13019e-05
-3.43318e-05
5.12344e-05
-7.52243e-05
7.34196e-05
-0.000128713
9.91503e-05
-0.000195528
0.000128361
-0.00027509
0.000159503
-0.000365272
0.000189975
-0.000462587
0.000216746
-0.000562722
0.000236979
-0.000661229
0.000248509
-0.000754132
0.000250103
-0.000838291
0.00024146
-0.000911497
0.000223026
-0.000972346
0.000195732
-0.00102001
0.000160758
-0.00105399
0.000119372
-0.00107395
7.28425e-05
-0.00107956
2.24204e-05
-0.00107043
-3.05961e-05
-0.00104625
-8.47483e-05
-0.00100688
-0.000138343
-0.000952391
-0.00018941
-0.000883179
-0.000235707
-0.000800184
-0.000274726
-0.000705042
-0.000303843
-0.000600244
-0.00032058
-0.000489202
-0.000322978
-0.000376192
-0.000310046
-0.000266049
-0.00028218
-0.000163627
-0.000241418
-7.32413e-05
-0.000191333
1.83601e-06
-0.000136479
6.00311e-05
-8.16761e-05
0.00010104
-3.12036e-05
0.000125119
1.19834e-05
0.000133559
4.5548e-05
0.000128865
6.83037e-05
0.000114333
8.0582e-05
9.35473e-05
8.39232e-05
6.98693e-05
8.05496e-05
4.61154e-05
7.25377e-05
2.46358e-05
6.07594e-05
7.92813e-06
4.3976e-05
1.87954e-05
6.20543e-06
-2.48808e-05
1.48962e-05
-4.50284e-05
1.92077e-05
-4.10867e-05
1.54791e-05
-2.1474e-05
2.1633e-06
5.79692e-06
-2.16235e-05
3.56939e-05
-5.70581e-05
6.67364e-05
-0.000105867
0.000100043
-0.000169673
0.000137226
-0.000249041
0.000178518
-0.000342785
0.000222106
-0.000447889
0.000264607
-0.000559973
0.000302058
-0.000674093
0.000330866
-0.000785573
0.000348459
-0.000890592
0.000353528
-0.000986423
0.000345933
-0.00107135
0.000326386
-0.00114441
0.000296089
-0.00120512
0.000256442
-0.00125323
0.000208872
-0.00128861
0.000154745
-0.0013111
9.53307e-05
-0.00132053
3.18513e-05
-0.00131664
-3.4488e-05
-0.00129907
-0.000102317
-0.00126734
-0.000170075
-0.00122086
-0.000235885
-0.00115912
-0.000297452
-0.00108182
-0.000352019
-0.000989222
-0.000396444
-0.000882406
-0.000427395
-0.000763672
-0.000441713
-0.000636724
-0.000436993
-0.000506631
-0.000412274
-0.000379413
-0.000368635
-0.000261273
-0.000309473
-0.000157513
-0.000240239
-7.16573e-05
-0.000167532
-5.14519e-06
-9.77158e-05
4.25662e-05
-3.5728e-05
7.27215e-05
1.53926e-05
8.69244e-05
5.41007e-05
8.77027e-05
7.98036e-05
7.82654e-05
9.33605e-05
6.21246e-05
9.66903e-05
4.2741e-05
9.19213e-05
2.34086e-05
8.00917e-05
7.6033e-06
5.97812e-05
2.63987e-05
4.89896e-06
-2.97798e-05
8.88254e-06
-4.9012e-05
5.29389e-06
-3.7498e-05
-8.91706e-06
-7.26313e-06
-3.50947e-05
3.19745e-05
-7.44017e-05
7.50009e-05
-0.000128556
0.000120891
-0.000199308
0.000170794
-0.000287213
0.000225132
-0.00039075
0.000282055
-0.000506274
0.000337629
-0.000628723
0.000387056
-0.000752648
0.000425983
-0.000873143
0.000451361
-0.000986403
0.000461719
-0.00108987
0.000456994
-0.00118205
0.000438118
-0.00126225
0.000406586
-0.00133027
0.000364103
-0.00138622
0.000312398
-0.00143045
0.000253098
-0.00146336
0.000187656
-0.00148536
0.000117334
-0.00149678
4.32708e-05
-0.00149773
-3.35393e-05
-0.00148797
-0.000112082
-0.00146685
-0.000191192
-0.00143334
-0.000269392
-0.00138607
-0.000344722
-0.00132347
-0.000414619
-0.00124408
-0.000475838
-0.001147
-0.000524477
-0.00103245
-0.000556263
-0.000902307
-0.000567137
-0.000760521
-0.000554059
-0.000613221
-0.000515936
-0.000468199
-0.000454495
-0.000333714
-0.000374724
-0.000216827
-0.000284419
-0.000121841
-0.000192701
-4.97147e-05
-0.000107855
1.18836e-06
-3.55106e-05
3.34701e-05
2.1819e-05
4.96818e-05
6.35918e-05
5.27828e-05
9.02595e-05
4.61872e-05
0.000103286
3.35979e-05
0.000104511
1.88756e-05
9.4814e-05
6.11468e-06
7.25421e-05
3.25133e-05
2.27578e-06
-3.20556e-05
-9.10514e-07
-4.58258e-05
-1.4998e-05
-2.34106e-05
-4.21791e-05
1.99179e-05
-8.36367e-05
7.34322e-05
-0.000140805
0.000132169
-0.000215385
0.000195471
-0.000308055
0.000263464
-0.000417279
0.000334356
-0.000539115
0.000403891
-0.000668016
0.00046653
-0.000798049
0.000517089
-0.000923942
0.000551877
-0.00104168
0.000569096
-0.0011486
0.000568638
-0.00124322
0.000551619
-0.00132498
0.000519871
-0.00139393
0.000475541
-0.00145065
0.000420825
-0.00149606
0.000357805
-0.00153127
0.000288309
-0.00155744
0.000213823
-0.00157562
0.000135517
-0.00158665
5.43025e-05
-0.00159101
-2.91788e-05
-0.00158869
-0.000114405
-0.00157916
-0.000200726
-0.00156126
-0.00028729
-0.00153316
-0.000372817
-0.00149241
-0.000455374
-0.00143612
-0.000532121
-0.00136141
-0.000599191
-0.00126588
-0.000651788
-0.00114849
-0.000684533
-0.00101041
-0.000692134
-0.000855853
-0.000670498
-0.000692221
-0.000618128
-0.000529554
-0.00053739
-0.000378867
-0.000435107
-0.000249642
-0.000321926
-0.000147358
-0.000210139
-7.24717e-05
-0.000110397
-2.16791e-05
-2.89737e-05
9.34223e-06
3.25704e-05
2.44502e-05
7.51514e-05
2.74287e-05
0.000100307
2.22349e-05
0.000109704
1.3049e-05
0.000104
4.21376e-06
8.13773e-05
3.67271e-05
-1.9152e-06
-3.01404e-05
-1.4648e-05
-3.3093e-05
-4.13144e-05
3.25574e-06
-8.32058e-05
6.18092e-05
-0.000141334
0.00013156
-0.000217097
0.000207933
-0.00031128
0.000289653
-0.000422599
0.000374784
-0.000547166
0.000458923
-0.000679176
0.000535901
-0.000812242
0.000599596
-0.000940602
0.000645448
-0.00105981
0.000671084
-0.0011669
0.000676187
-0.00126025
0.000661986
-0.00133932
0.000630687
-0.00140443
0.000584988
-0.0014566
0.00052771
-0.00149732
0.000461544
-0.00152836
0.000388843
-0.00155153
0.000311483
-0.00156854
0.000230832
-0.00158085
0.000147822
-0.00158955
6.30056e-05
-0.00159536
-2.33729e-05
-0.00159853
-0.00011123
-0.00159884
-0.000200419
-0.00159537
-0.000290759
-0.00158643
-0.000381757
-0.00156947
-0.000472333
-0.00154107
-0.000560528
-0.001497
-0.000643258
-0.00143268
-0.000716105
-0.00134397
-0.000773249
-0.00122828
-0.000807825
-0.00108588
-0.000812891
-0.000921074
-0.000782938
-0.000742701
-0.000715763
-0.000563525
-0.000614283
-0.000397924
-0.000487528
-0.000258286
-0.000349777
-0.000151377
-0.000217305
-7.68412e-05
-0.00010351
-2.92115e-05
-1.50594e-05
-2.06024e-06
4.80001e-05
9.9832e-06
8.82638e-05
1.17362e-05
0.000107951
7.79446e-06
0.000107942
2.60185e-06
8.65698e-05
3.93289e-05
-7.74183e-06
-2.23986e-05
-3.18915e-05
-8.94339e-06
-7.24859e-05
4.38501e-05
-0.000129783
0.000119107
-0.000204606
0.000206383
-0.000297685
0.000301011
-0.000408128
0.000400096
-0.000532429
0.000499085
-0.000664816
0.00059131
-0.000798556
0.000669641
-0.000927337
0.000728378
-0.00104614
0.000764253
-0.00115155
0.000776491
-0.00124167
0.000766308
-0.00131595
0.000736265
-0.00137494
0.000689679
-0.00142007
0.00063012
-0.00145337
0.000561014
-0.00147718
0.000485345
-0.0014938
0.000405468
-0.00150537
0.000323047
-0.00151367
0.000239134
-0.00152013
0.000154288
-0.0015258
6.86732e-05
-0.00153139
-1.77793e-05
-0.00153735
-0.000105277
-0.00154372
-0.000194048
-0.0015501
-0.000284377
-0.00155549
-0.000376366
-0.00155806
-0.000469765
-0.00155485
-0.000563735
-0.0015416
-0.000656507
-0.00151283
-0.000744882
-0.00146227
-0.000823803
-0.00138384
-0.000886256
-0.00127307
-0.000923661
-0.00112904
-0.000926972
-0.000956109
-0.00088869
-0.000764814
-0.000805579
-0.000571031
-0.000681311
-0.000392975
-0.000527833
-0.000246181
-0.000364098
-0.000138391
-0.0002113
-6.76972e-05
-8.57534e-05
-2.58899e-05
6.1927e-06
-4.30639e-06
6.66802e-05
3.87385e-06
9.9771e-05
4.28417e-06
0.000107531
1.71531e-06
8.91386e-05
4.10442e-05
-1.49319e-05
-7.46673e-06
-5.16595e-05
2.77841e-05
-0.00010648
9.86702e-05
-0.000178718
0.000191345
-0.000268726
0.000296391
-0.000375963
0.000408248
-0.000497563
0.000521696
-0.000628131
0.000629652
-0.000760812
0.000723991
-0.000888787
0.000797616
-0.00100639
0.000845983
-0.00110963
0.000867493
-0.00119626
0.000863114
-0.00126561
0.000835663
-0.00131843
0.000789087
-0.00135655
0.000727792
-0.00138249
0.00065606
-0.00139908
0.000577607
-0.00140906
0.000495327
-0.00141481
0.000411211
-0.00141821
0.000326449
-0.0014207
0.000241621
-0.00142327
0.000156867
-0.00142665
7.20513e-05
-0.00143135
-1.30799e-05
-0.00143777
-9.88603e-05
-0.00144615
-0.000185664
-0.00145663
-0.000273898
-0.00146905
-0.000363944
-0.0014827
-0.000456118
-0.00149589
-0.000550542
-0.00150562
-0.000646786
-0.00150716
-0.000743342
-0.00149395
-0.000837004
-0.00145799
-0.000922225
-0.00139097
-0.000990682
-0.00128636
-0.00103158
-0.00114191
-0.00103314
-0.000962071
-0.000985422
-0.000759337
-0.000884045
-0.000553293
-0.000733877
-0.000366418
-0.000550974
-0.000217189
-0.00036053
-0.000113333
-0.000189609
-5.01816e-05
-5.6959e-05
-1.63329e-05
3.28314e-05
-1.28612e-06
8.47242e-05
2.7503e-06
0.000103495
1.64887e-06
9.024e-05
4.26931e-05
-2.29867e-05
1.55199e-05
-7.24425e-05
7.72398e-05
-0.000140703
0.000166931
-0.000226256
0.000276898
-0.000328579
0.000398713
-0.000445545
0.000525215
-0.00057249
0.000648641
-0.000702779
0.000759941
-0.000829256
0.000850468
-0.000945612
0.000913973
-0.00104719
0.000947557
-0.00113123
0.000951541
-0.00119689
0.00092877
-0.00124497
0.000883744
-0.00127763
0.000821744
-0.00129786
0.000748027
-0.00130898
0.000667176
-0.00131409
0.000582715
-0.00131576
0.000497003
-0.00131592
0.000411368
-0.00131584
0.000326369
-0.0013163
0.000242077
-0.00131772
0.000158295
-0.00132039
7.47194e-05
-0.00132451
-8.96578e-06
-0.0013303
-9.30696e-05
-0.00133807
-0.000177893
-0.00134824
-0.000263726
-0.00136124
-0.000350941
-0.00137733
-0.000440032
-0.00139629
-0.000531578
-0.00141701
-0.000626068
-0.00143678
-0.000723574
-0.00145065
-0.000823136
-0.0014511
-0.000921774
-0.0014284
-0.00101338
-0.00137196
-0.00108802
-0.00127288
-0.00113222
-0.00112746
-0.00113084
-0.000940578
-0.00107093
-0.000727427
-0.000947028
-0.000512001
-0.0007664
-0.000321271
-0.000551259
-0.000175842
-0.000335038
-8.16117e-05
-0.000151189
-2.96131e-05
-1.91673e-05
-5.39127e-06
6.05023e-05
2.4943e-06
9.5609e-05
2.18168e-06
9.05526e-05
4.48748e-05
-3.11643e-05
4.66842e-05
-9.2428e-05
0.000138504
-0.000172422
0.000246924
-0.000268675
0.000373151
-0.00037953
0.000509569
-0.000501305
0.00064699
-0.000628007
0.000775344
-0.000752461
0.000884395
-0.000867823
0.00096583
-0.000968708
0.00101486
-0.00105173
0.00103058
-0.00111562
0.00101544
-0.00116111
0.00097426
-0.00119054
0.000913167
-0.00120728
0.000838485
-0.00121508
0.000755834
-0.00121744
0.000669531
-0.00121713
0.000582408
-0.0012161
0.00049597
-0.00121548
0.000410748
-0.0012158
0.00032669
-0.0012172
0.00024348
-0.00121964
0.000160733
-0.00122303
7.81065e-05
-0.00122732
-4.67433e-06
-0.00123259
-8.78034e-05
-0.00123906
-0.000171424
-0.00124713
-0.000255649
-0.0012574
-0.000340679
-0.00127057
-0.000426857
-0.00128743
-0.000514725
-0.00130842
-0.000605076
-0.0013331
-0.000698889
-0.0013593
-0.000796932
-0.00138217
-0.000898908
-0.00139341
-0.00100214
-0.00138145
-0.00109998
-0.00133313
-0.00118054
-0.00123713
-0.00122684
-0.00108857
-0.00121948
-0.000893434
-0.00114217
-0.000670652
-0.000989182
-0.000449616
-0.000772296
-0.000261708
-0.000522946
-0.000127793
-0.000285104
-4.91516e-05
-9.78091e-05
-1.12731e-05
2.26238e-05
2.15987e-06
8.2176e-05
2.88143e-06
8.98309e-05
4.77562e-05
-3.85897e-05
8.52739e-05
-0.000109888
0.000209801
-0.000199149
0.000336186
-0.000302834
0.000476836
-0.000418087
0.000624821
-0.00053995
0.000768853
-0.000661683
0.000897076
-0.000776168
0.000998881
-0.000877324
0.00106699
-0.000960985
0.00109852
-0.00102526
0.00109485
-0.00107052
0.0010607
-0.00109907
0.00100281
-0.00111451
0.000928609
-0.00112097
0.000844947
-0.00112231
0.00075717
-0.00112156
0.000668781
-0.00112073
0.000581581
-0.00112088
0.000496119
-0.00112235
0.000412215
-0.00112505
0.000329393
-0.00112872
0.000247147
-0.00113305
0.00016507
-0.00113783
8.28774e-05
-0.00114289
3.94743e-07
-0.00114824
-8.24546e-05
-0.00115398
-0.000165692
-0.00116032
-0.000249302
-0.0011677
-0.000333299
-0.00117679
-0.00041777
-0.00118853
-0.000502982
-0.00120408
-0.000589526
-0.00122453
-0.000678444
-0.00125027
-0.000771192
-0.00127989
-0.000869287
-0.00130872
-0.00097331
-0.00132767
-0.00108103
-0.00132323
-0.00118498
-0.00127954
-0.00127054
-0.0011828
-0.00131622
-0.00102753
-0.00129743
-0.000822154
-0.00119456
-0.000591048
-0.0010034
-0.000369983
-0.000744012
-0.000193734
-0.000461353
-7.99915e-05
-0.000211552
-2.1947e-05
-3.54208e-05
2.48838e-07
5.998e-05
3.27349e-06
8.68062e-05
5.10297e-05
-4.44954e-05
0.000129769
-0.000123391
0.000288697
-0.000218969
0.000431765
-0.000326555
0.000584422
-0.000442211
0.000740477
-0.000560126
0.000886768
-0.000673351
0.0010103
-0.000775292
0.00110082
-0.000860943
0.00115264
-0.000927559
0.00116513
-0.000974852
0.00114215
-0.00100478
0.00109062
-0.00102093
0.00101896
-0.00102768
0.000935359
-0.00102923
0.000846503
-0.00102894
0.000756875
-0.00102896
0.0006688
-0.00103034
0.000582963
-0.00103331
0.000499091
-0.00103764
0.00041654
-0.0010429
0.00033466
-0.00104871
0.000252955
-0.00105475
0.00017111
-0.00106082
8.89479e-05
-0.00106682
6.39366e-06
-0.00107272
-7.65583e-05
-0.00107853
-0.000159876
-0.00108434
-0.000243497
-0.0010903
-0.000327335
-0.00109677
-0.000411307
-0.00110434
-0.000495408
-0.00111403
-0.000579834
-0.00112731
-0.000665167
-0.00114587
-0.000752627
-0.00117095
-0.000844209
-0.00120192
-0.00094234
-0.00123439
-0.00104856
-0.00125837
-0.00116099
-0.00125807
-0.00127085
-0.00121456
-0.00135972
-0.00111197
-0.00140002
-0.000945487
-0.00136105
-0.000728099
-0.00122079
-0.000491751
-0.00098036
-0.00027907
-0.000674034
-0.000125359
-0.000365263
-3.96779e-05
-0.000121102
-4.39129e-06
2.46933e-05
3.03209e-06
7.93828e-05
5.40618e-05
-4.83105e-05
0.00017808
-0.000131954
0.00037234
-0.0002307
0.000530512
-0.000338748
0.000692469
-0.000451315
0.000853044
-0.000562177
0.00099763
-0.000664627
0.00111275
-0.00075292
0.00118912
-0.000823316
0.00122303
-0.000874569
0.00121639
-0.000907919
0.0011755
-0.000926623
0.00110932
-0.00093508
0.00102741
-0.000937785
0.000938064
-0.000938437
0.000847155
-0.000939468
0.000757906
-0.000942035
0.000671367
-0.000946338
0.000587266
-0.000952046
0.000504799
-0.000958651
0.000423146
-0.000965693
0.000341702
-0.000972846
0.000260108
-0.000979921
0.000178185
-0.000986837
9.58631e-05
-0.000993572
1.31294e-05
-0.00100013
-7.00004e-05
-0.00100651
-0.000153495
-0.00101271
-0.000237303
-0.0010187
-0.000321337
-0.00102454
-0.000405475
-0.00103037
-0.00048957
-0.0010367
-0.000573511
-0.0010445
-0.00065737
-0.00105542
-0.000741701
-0.00107171
-0.000827926
-0.00109544
-0.00091861
-0.00112682
-0.00101718
-0.00116153
-0.00112628
-0.00118823
-0.00124415
-0.00118828
-0.00135968
-0.0011396
-0.0014487
-0.00102503
-0.00147562
-0.000842606
-0.00140321
-0.000612985
-0.00120998
-0.000377916
-0.000909103
-0.000185671
-0.000557508
-6.59162e-05
-0.000240857
-1.23353e-05
-2.88877e-05
2.04162e-06
6.50057e-05
5.61034e-05
-4.97054e-05
0.000227785
-0.000135085
0.00045772
-0.000233918
0.000629344
-0.000339344
0.000797895
-0.000446028
0.000959728
-0.000547726
0.00109933
-0.000638308
0.00120333
-0.000713073
0.00126388
-0.000769614
0.00127957
-0.000808103
0.00125488
-0.000831054
0.00119845
-0.000842576
0.00112085
-0.000847287
0.00103213
-0.000849252
0.000940029
-0.000851289
0.000849192
-0.000854807
0.000761425
-0.000860099
0.000676658
-0.000866805
0.000593972
-0.000874356
0.000512349
-0.000882239
0.00043103
-0.000890119
0.000349582
-0.000897828
0.000267817
-0.000905326
0.000185683
-0.000912643
0.00010318
-0.000919827
2.03139e-05
-0.000926922
-6.29057e-05
-0.000933941
-0.000146475
-0.000940861
-0.000230384
-0.000947606
-0.000314592
-0.000954064
-0.000399017
-0.000960125
-0.00048351
-0.000965782
-0.000567854
-0.000971324
-0.000651827
-0.000977645
-0.000735381
-0.000986562
-0.000819009
-0.00100084
-0.000904331
-0.00102339
-0.000994632
-0.00105507
-0.00109459
-0.00109125
-0.00120797
-0.00111848
-0.00133245
-0.00111448
-0.0014527
-0.00105405
-0.00153604
-0.000920576
-0.00153669
-0.000718575
-0.00141198
-0.000480232
-0.00114745
-0.000258231
-0.000779509
-0.000101484
-0.000397604
-2.37471e-05
-0.000106624
3.08827e-07
4.09497e-05
5.64122e-05
-4.85933e-05
0.000276378
-0.000132757
0.000541883
-0.000228858
0.000725445
-0.00032909
0.000898127
-0.000427849
0.00105849
-0.000519189
0.00119067
-0.000597769
0.00128191
-0.000660012
0.00132612
-0.000704775
0.00132434
-0.000733427
0.00128353
-0.000749367
0.00121439
-0.000757041
0.00112852
-0.000760778
0.00103586
-0.000763855
0.000943107
-0.000768101
0.000853437
-0.000774047
0.000767371
-0.000781407
0.000684019
-0.000789585
0.00060215
-0.000798022
0.000520786
-0.000806354
0.000439363
-0.000814425
0.000357652
-0.000822219
0.000275611
-0.000829803
0.000193268
-0.000837269
0.000110645
-0.0008447
2.77449e-05
-0.00085216
-5.54457e-05
-0.000859678
-0.000138957
-0.000867246
-0.000222815
-0.000874806
-0.000307032
-0.000882232
-0.00039159
-0.000889332
-0.00047641
-0.000895862
-0.000561324
-0.000901636
-0.000646054
-0.000906762
-0.000730255
-0.000912047
-0.000813724
-0.000919465
-0.000896913
-0.000932327
-0.000981771
-0.000954368
-0.00107255
-0.000986886
-0.00117545
-0.00102409
-0.00129525
-0.00104913
-0.00142766
-0.00103527
-0.0015499
-0.000955142
-0.00161682
-0.000796103
-0.00157102
-0.000574297
-0.00136925
-0.000337209
-0.0010166
-0.000146115
-0.000588698
-3.90027e-05
-0.000213737
-2.30617e-06
4.25298e-06
5.4106e-05
-4.50936e-05
0.000321472
-0.000125309
0.000622099
-0.000216249
0.000816385
-0.000309286
0.000991165
-0.000398784
0.00114798
-0.000479325
0.00127121
-0.000546464
0.00134905
-0.000597711
0.00137737
-0.000633008
0.00135963
-0.000654601
0.00130512
-0.00066633
0.00122612
-0.000672522
0.00113471
-0.000676869
0.00104021
-0.000681739
0.000947976
-0.000688081
0.00085978
-0.000695819
0.000775109
-0.000704394
0.000692594
-0.000713212
0.000610968
-0.000721867
0.000529441
-0.000730183
0.000447679
-0.000738156
0.000365625
-0.000745872
0.000283328
-0.000753448
0.000200843
-0.000760991
0.000118189
-0.000768589
3.53422e-05
-0.000776303
-4.77311e-05
-0.000784169
-0.000131091
-0.000792196
-0.000214788
-0.000800359
-0.000298869
-0.00080858
-0.00038337
-0.0008167
-0.000468289
-0.000824464
-0.00055356
-0.000831523
-0.000638994
-0.000837539
-0.000724239
-0.00084245
-0.000808813
-0.000847002
-0.000892361
-0.000853423
-0.00097535
-0.000865704
-0.00106027
-0.000888362
-0.0011528
-0.000922531
-0.00126108
-0.000959922
-0.00139027
-0.00097866
-0.00153116
-0.000947127
-0.00164835
-0.000838354
-0.0016798
-0.000649498
-0.00155811
-0.00041462
-0.00125148
-0.000197762
-0.000805556
-5.87613e-05
-0.000352738
-5.87521e-06
-4.86334e-05
4.82307e-05
-3.94789e-05
0.000360951
-0.000113341
0.000695961
-0.000197133
0.000900177
-0.000281523
0.00107555
-0.000361022
0.00122748
-0.000430878
0.00134107
-0.000487556
0.00140573
-0.000529529
0.00141935
-0.000557568
0.00138767
-0.000574428
0.00132198
-0.000583987
0.00123568
-0.000590116
0.00114084
-0.00059572
0.00104581
-0.000602319
0.000954575
-0.000610214
0.000867675
-0.000619
0.000783895
-0.000628081
0.000701676
-0.000636998
0.000619885
-0.000645531
0.000537974
-0.000653663
0.00045581
-0.000661486
0.000373449
-0.000669132
0.000290974
-0.000676724
0.000208435
-0.000684362
0.000125827
-0.000692118
4.30984e-05
-0.000700046
-3.98033e-05
-0.000708176
-0.000122961
-0.000716525
-0.000206439
-0.000725091
-0.000290304
-0.000733837
-0.000374623
-0.000742675
-0.000459451
-0.000751428
-0.000544807
-0.000759793
-0.000630629
-0.00076733
-0.000716702
-0.000773558
-0.000802584
-0.000778292
-0.000887628
-0.000782321
-0.000971322
-0.000788294
-0.0010543
-0.000801047
-0.00114004
-0.000825731
-0.0012364
-0.000862285
-0.00135371
-0.000897808
-0.00149564
-0.00090355
-0.00164261
-0.000844112
-0.00173923
-0.000698571
-0.00170365
-0.000482235
-0.00146781
-0.000252341
-0.00103545
-8.31713e-05
-0.000521907
-1.03786e-05
-0.000121426
3.78521e-05
-3.2121e-05
0.000393072
-9.76016e-05
0.000761442
-0.000172695
0.00097527
-0.000247469
0.00115033
-0.00031669
0.0012967
-0.000376331
0.00140071
-0.00042371
0.00145311
-0.000458078
0.00145371
-0.000480745
0.00141034
-0.000494626
0.00133586
-0.000503319
0.00124437
-0.000510056
0.00114758
-0.000516956
0.00105271
-0.000524864
0.000962483
-0.000533684
0.000876495
-0.000542905
0.000793116
-0.000552028
0.000710799
-0.000560768
0.000628624
-0.000569064
0.000546269
-0.000576999
0.000463746
-0.000584712
0.000381162
-0.000592339
0.000298601
-0.00059999
0.000216086
-0.000607749
0.000133585
-0.000615673
5.10229e-05
-0.000623808
-3.16685e-05
-0.000632176
-0.000114593
-0.000640794
-0.000197822
-0.000649665
-0.000281432
-0.000658776
-0.000365511
-0.000668087
-0.000450141
-0.000677499
-0.000535395
-0.000686818
-0.00062131
-0.000695696
-0.000707824
-0.000703604
-0.000794676
-0.000709942
-0.00088129
-0.000714456
-0.000966808
-0.000718132
-0.00105062
-0.000724337
-0.00113384
-0.000738976
-0.00122176
-0.000767322
-0.00132537
-0.000806121
-0.00145684
-0.000834975
-0.00161376
-0.000817389
-0.00175682
-0.000718631
-0.00180241
-0.000533446
-0.001653
-0.000304569
-0.00126433
-0.000111222
-0.000715255
-1.58198e-05
-0.000216828
2.20323e-05
-2.34436e-05
0.000416516
-7.88953e-05
0.000816893
-0.000144134
0.00104051
-0.000208714
0.00121491
-0.000267693
0.00135568
-0.00031777
0.00145078
-0.000357011
0.00149235
-0.000385234
0.00148194
-0.000404001
0.00142911
-0.000416099
0.00134796
-0.000424635
0.00125291
-0.000432142
0.00115508
-0.000440062
0.00106063
-0.000448768
0.000971189
-0.000457976
0.000885703
-0.000467209
0.00080235
-0.000476118
0.000719707
-0.000484572
0.000637078
-0.000492618
0.000554316
-0.000500391
0.000471518
-0.000508035
0.000388806
-0.000515672
0.000306239
-0.000523396
0.00022381
-0.000531278
0.000141467
-0.000539369
5.91141e-05
-0.000547709
-2.33281e-05
-0.000556316
-0.000105986
-0.0005652
-0.000188938
-0.000574363
-0.000272269
-0.000583799
-0.000356075
-0.000593484
-0.000440455
-0.00060337
-0.00052551
-0.000613347
-0.000611332
-0.000623196
-0.000697975
-0.000632515
-0.000785358
-0.000640678
-0.000873126
-0.000646979
-0.000960507
-0.000651203
-0.0010464
-0.000654817
-0.00113022
-0.00066231
-0.00121427
-0.000680708
-0.00130697
-0.000714065
-0.00142348
-0.000752659
-0.00157516
-0.000765626
-0.00174385
-0.000710946
-0.00185709
-0.000564406
-0.00179954
-0.000349402
-0.00147933
-0.000140915
-0.000923742
-2.20959e-05
-0.000335647
-6.36337e-08
-1.38878e-05
0.000430403
-5.80206e-05
0.000861026
-0.000112576
0.00109506
-0.000166671
0.001269
-0.000215635
0.00140465
-0.000256846
0.00149199
-0.000288987
0.00152449
-0.000312235
0.00150518
-0.00032816
0.00144503
-0.000339202
0.001359
-0.000347869
0.00126157
-0.000356025
0.00116324
-0.000364577
0.00106919
-0.000373617
0.000980229
-0.000382815
0.0008949
-0.0003918
0.000811336
-0.000400369
0.000728276
-0.000408504
0.000645214
-0.000416313
0.000562125
-0.000423942
0.000479147
-0.000431524
0.000396389
-0.000439166
0.000313881
-0.000446946
0.000231591
-0.00045493
0.000149451
-0.000463169
6.73542e-05
-0.000471707
-1.47903e-05
-0.000480556
-9.7137e-05
-0.000489723
-0.00017977
-0.000499204
-0.000262787
-0.000508989
-0.000346291
-0.000519057
-0.000430387
-0.000529378
-0.000515189
-0.000539891
-0.00060082
-0.000550469
-0.000687397
-0.000560852
-0.000774975
-0.000570559
-0.000863419
-0.000578856
-0.00095221
-0.000584974
-0.00104028
-0.000588928
-0.00112627
-0.000593089
-0.00121011
-0.000603541
-0.00129652
-0.000627949
-0.00139907
-0.000666231
-0.00153688
-0.000697571
-0.00171251
-0.000679856
-0.0018748
-0.000574279
-0.00190511
-0.000383125
-0.00167049
-0.000169672
-0.00113719
-2.94178e-05
-0.000475902
-2.94815e-05
-3.87331e-06
0.000434277
-3.57418e-05
0.000892895
-7.90291e-05
0.00113835
-0.000122543
0.00131252
-0.000161805
0.00144391
-0.000194794
0.00152498
-0.000220683
0.00155038
-0.000239823
0.00152432
-0.000253601
0.00145881
-0.000263966
0.00136937
-0.00027279
0.0012704
-0.000281347
0.0011718
-0.000290155
0.00107799
-0.000299159
0.000989233
-0.000308075
0.000903816
-0.000316658
0.000819919
-0.000324822
0.00073644
-0.000332623
0.000653015
-0.000340192
0.000569694
-0.000347667
0.000486622
-0.000355165
0.000403888
-0.000362778
0.000321494
-0.000370577
0.000239389
-0.000378625
0.0001575
-0.000386985
7.57143e-05
-0.000395702
-6.07253e-06
-0.000404793
-8.80458e-05
-0.000414261
-0.000170302
-0.000424094
-0.000252954
-0.000434276
-0.000336109
-0.000444782
-0.000419881
-0.000455584
-0.000504386
-0.000466641
-0.000589762
-0.000477876
-0.000676162
-0.000489129
-0.000763722
-0.000500074
-0.000852473
-0.000510129
-0.000942156
-0.000518441
-0.00103196
-0.000524274
-0.00112044
-0.000528219
-0.00120616
-0.000534194
-0.00129054
-0.000550137
-0.00138313
-0.000582399
-0.00150462
-0.000621475
-0.00167344
-0.000631388
-0.00186489
-0.000564789
-0.00197171
-0.000403855
-0.00183142
-0.000195055
-0.00134599
-3.78495e-05
-0.000633108
-6.7331e-05
6.06248e-06
0.000428214
-1.27279e-05
0.000911685
-4.43844e-05
0.00117001
-7.73204e-05
0.00134545
-0.0001072
0.00147379
-0.000132499
0.00155028
-0.000152765
0.00157065
-0.000168382
0.00153994
-0.000180415
0.00147084
-0.000190247
0.0013792
-0.00019912
0.00127927
-0.000207805
0.00118048
-0.000216548
0.00108674
-0.000225245
0.000997931
-0.000233698
0.000912269
-0.000241781
0.000828002
-0.000249495
0.000744155
-0.000256938
0.000660458
-0.000264239
0.000576995
-0.000271524
0.000493907
-0.000278895
0.000411259
-0.000286434
0.000329033
-0.000294206
0.000247162
-0.000302277
0.000165571
-0.000310721
8.41587e-05
-0.000319594
2.80033e-06
-0.000328921
-7.87187e-05
-0.000338701
-0.000160521
-0.000348916
-0.000242739
-0.000359541
-0.000325484
-0.000370548
-0.000408873
-0.000381907
-0.000493027
-0.000393581
-0.000578088
-0.000405515
-0.000664227
-0.000417605
-0.000751632
-0.000429634
-0.000840444
-0.000441185
-0.000930606
-0.000451539
-0.00102161
-0.000459761
-0.00111222
-0.000465373
-0.00120055
-0.000470137
-0.00128578
-0.00048025
-0.00137301
-0.000504774
-0.0014801
-0.000543949
-0.00163426
-0.000571939
-0.0018369
-0.000539363
-0.00200429
-0.000411491
-0.00195929
-0.000215298
-0.00154219
-4.69664e-05
-0.000801439