/*--------------------------------*- C++ -*----------------------------------*\
  =========                 |
  \\      /  F ield         | OpenFOAM: The Open Source CFD Toolbox
   \\    /   O peration     | Website:  https://openfoam.org
    \\  /    A nd           | Version:  7
     \\/     M anipulation  |
\*---------------------------------------------------------------------------*/
FoamFile
{
    version     2.0;
    format      ascii;
    class       volVectorField;
    location    "1450";
    object      U;
}
// * * * * * * * * * * * * * * * * * * * * * * * * * * * * * * * * * * * * * //

dimensions      [0 1 -1 0 0 0 0];

internalField   nonuniform List<vector> 
2500
(
(0.000206993 -0.0002017 0)
(0.0018654 -0.000571418 0)
(0.00447387 -0.000697917 0)
(0.00716302 -0.00060015 0)
(0.00922918 -0.000419021 0)
(0.0104505 -0.000264346 0)
(0.0109304 -0.000188007 0)
(0.0108813 -0.000185876 0)
(0.0104508 -0.000219861 0)
(0.00963442 -0.000245426 0)
(0.00828289 -0.000228682 0)
(0.00616391 -0.000150775 0)
(0.00302021 -2.66075e-06 0)
(-0.00139193 0.000221041 0)
(-0.00727713 0.00052347 0)
(-0.0147679 0.000908162 0)
(-0.0238867 0.00137512 0)
(-0.0345035 0.00191272 0)
(-0.0463004 0.00248775 0)
(-0.0587514 0.00303791 0)
(-0.0711281 0.00347342 0)
(-0.0825369 0.00368971 0)
(-0.0919888 0.00358836 0)
(-0.0985012 0.00310419 0)
(-0.101209 0.00223146 0)
(-0.0994377 0.00102822 0)
(-0.09292 -0.000374684 0)
(-0.081729 -0.00181165 0)
(-0.0663323 -0.00310913 0)
(-0.0475869 -0.00410028 0)
(-0.0267119 -0.00464011 0)
(-0.00518924 -0.0046059 0)
(0.0154552 -0.00393562 0)
(0.0337515 -0.00278431 0)
(0.0483927 -0.00137132 0)
(0.0584231 0.000125671 0)
(0.0634629 0.00149687 0)
(0.0637246 0.0025342 0)
(0.0600147 0.00311183 0)
(0.0534987 0.0032248 0)
(0.0454084 0.00298642 0)
(0.0368471 0.00254958 0)
(0.0286517 0.0020487 0)
(0.0213421 0.00157435 0)
(0.0151479 0.00117424 0)
(0.0100801 0.000863428 0)
(0.00602915 0.000631249 0)
(0.00290121 0.000436031 0)
(0.000795365 0.000192797 0)
(-8.20198e-05 -8.74202e-05 0)
(0.000565981 -0.00181922 0)
(0.00437423 -0.00431709 0)
(0.00958163 -0.00511721 0)
(0.0146036 -0.00444086 0)
(0.0181613 -0.00299838 0)
(0.0197682 -0.00145779 0)
(0.0194627 -0.000192413 0)
(0.0174562 0.000765694 0)
(0.0138338 0.00162535 0)
(0.00840663 0.00266527 0)
(0.000737885 0.00410275 0)
(-0.00972862 0.00604372 0)
(-0.023522 0.00849236 0)
(-0.0410046 0.0113816 0)
(-0.0622566 0.0145731 0)
(-0.0869709 0.0178411 0)
(-0.114389 0.0208652 0)
(-0.143318 0.0232532 0)
(-0.172235 0.0245964 0)
(-0.199458 0.0245374 0)
(-0.223333 0.0228295 0)
(-0.242379 0.0193729 0)
(-0.255397 0.0142317 0)
(-0.261529 0.00763864 0)
(-0.260303 -1.63973e-05 0)
(-0.25165 -0.00821732 0)
(-0.235764 -0.0163938 0)
(-0.213093 -0.0239918 0)
(-0.184405 -0.0304484 0)
(-0.150788 -0.0352297 0)
(-0.113652 -0.0378734 0)
(-0.074694 -0.0380361 0)
(-0.0358248 -0.0355732 0)
(0.00102157 -0.0306676 0)
(0.0340001 -0.023818 0)
(0.0614339 -0.0157505 0)
(0.0820059 -0.00728611 0)
(0.094995 0.000692624 0)
(0.100266 0.00734235 0)
(0.0984338 0.0120809 0)
(0.0909532 0.0147109 0)
(0.0796104 0.0154341 0)
(0.0662314 0.0147151 0)
(0.0524143 0.0131076 0)
(0.039337 0.0111172 0)
(0.027694 0.0091104 0)
(0.0177735 0.00724887 0)
(0.00968233 0.0054347 0)
(0.00372627 0.00334325 0)
(0.000329299 0.000918486 0)
(0.000785706 -0.00449582 0)
(0.00568834 -0.00969549 0)
(0.0117177 -0.0109175 0)
(0.0169065 -0.00900595 0)
(0.0197639 -0.00542404 0)
(0.0197129 -0.00146968 0)
(0.0166712 0.00215277 0)
(0.0106365 0.00542334 0)
(0.00138374 0.00878113 0)
(-0.0116189 0.0127925 0)
(-0.0290844 0.0178435 0)
(-0.0516403 0.0240114 0)
(-0.0795921 0.0310846 0)
(-0.11271 0.0385994 0)
(-0.150121 0.0458757 0)
(-0.190349 0.0520948 0)
(-0.231506 0.0564331 0)
(-0.271556 0.0582043 0)
(-0.308575 0.0569622 0)
(-0.340938 0.052541 0)
(-0.367407 0.0450396 0)
(-0.387137 0.0347732 0)
(-0.399614 0.0222149 0)
(-0.404581 0.00794557 0)
(-0.401961 -0.00738514 0)
(-0.391728 -0.0230955 0)
(-0.37392 -0.0384739 0)
(-0.348809 -0.0527313 0)
(-0.31688 -0.0650323 0)
(-0.278899 -0.0745389 0)
(-0.235955 -0.0804776 0)
(-0.189488 -0.0822383 0)
(-0.141256 -0.0794902 0)
(-0.0932649 -0.0722892 0)
(-0.0476248 -0.0611838 0)
(-0.00633047 -0.0471792 0)
(0.0288943 -0.0315666 0)
(0.0566919 -0.0157934 0)
(0.0763708 -0.00114983 0)
(0.0876576 0.0111677 0)
(0.0908151 0.0202516 0)
(0.0870969 0.0257383 0)
(0.0782083 0.02786 0)
(0.0660393 0.0273064 0)
(0.05239 0.0249762 0)
(0.0387215 0.0217247 0)
(0.0260341 0.0181223 0)
(0.014968 0.0142393 0)
(0.00625652 0.00958315 0)
(0.000705218 0.00358675 0)
(0.000917681 -0.00772727 0)
(0.00606835 -0.0155929 0)
(0.0115463 -0.0165383 0)
(0.0151639 -0.012452 0)
(0.0154181 -0.0057337 0)
(0.01175 0.00169968 0)
(0.00393516 0.00894269 0)
(-0.00837524 0.0161038 0)
(-0.0258464 0.0239458 0)
(-0.0492936 0.0332198 0)
(-0.0793544 0.0442056 0)
(-0.116126 0.0565625 0)
(-0.158942 0.0694146 0)
(-0.206348 0.0815393 0)
(-0.256305 0.0916077 0)
(-0.30653 0.0984342 0)
(-0.35485 0.101171 0)
(-0.399455 0.0993953 0)
(-0.439013 0.0930951 0)
(-0.472648 0.0825709 0)
(-0.499833 0.0683224 0)
(-0.520268 0.0509481 0)
(-0.533764 0.0310787 0)
(-0.540156 0.00934977 0)
(-0.539281 -0.0135795 0)
(-0.530954 -0.0369777 0)
(-0.515051 -0.0599952 0)
(-0.491546 -0.0816671 0)
(-0.460541 -0.10093 0)
(-0.422355 -0.116643 0)
(-0.377612 -0.127667 0)
(-0.327328 -0.133001 0)
(-0.272972 -0.131953 0)
(-0.216478 -0.12432 0)
(-0.160164 -0.110532 0)
(-0.106512 -0.0917009 0)
(-0.0578692 -0.0695274 0)
(-0.0161054 -0.0460145 0)
(0.0175848 -0.0230764 0)
(0.0426116 -0.00245555 0)
(0.0589127 0.0146113 0)
(0.0667482 0.0272006 0)
(0.0672296 0.0349375 0)
(0.0619122 0.0381638 0)
(0.0525859 0.0377837 0)
(0.0410421 0.0349326 0)
(0.0288317 0.030568 0)
(0.0171898 0.0250318 0)
(0.00742137 0.0177401 0)
(0.000862114 0.00736596 0)
(0.000999761 -0.0110184 0)
(0.00561093 -0.0208282 0)
(0.00922907 -0.0203489 0)
(0.00967815 -0.0129023 0)
(0.00561995 -0.00193604 0)
(-0.00346428 0.0101268 0)
(-0.0180392 0.0223857 0)
(-0.0388602 0.0352841 0)
(-0.0668612 0.0497619 0)
(-0.102694 0.0663449 0)
(-0.146258 0.0846605 0)
(-0.196476 0.103478 0)
(-0.251412 0.121067 0)
(-0.308616 0.135634 0)
(-0.365584 0.145692 0)
(-0.420136 0.150291 0)
(-0.470627 0.149062 0)
(-0.515974 0.142133 0)
(-0.555547 0.129957 0)
(-0.589018 0.113152 0)
(-0.616227 0.0923894 0)
(-0.637097 0.0683343 0)
(-0.651562 0.0416221 0)
(-0.659535 0.0128742 0)
(-0.660914 -0.0172552 0)
(-0.655572 -0.0480312 0)
(-0.643298 -0.078596 0)
(-0.623807 -0.107945 0)
(-0.596804 -0.134899 0)
(-0.562066 -0.158096 0)
(-0.519548 -0.17606 0)
(-0.469537 -0.187327 0)
(-0.412839 -0.190649 0)
(-0.350938 -0.185247 0)
(-0.286042 -0.171101 0)
(-0.220984 -0.149145 0)
(-0.158929 -0.121273 0)
(-0.102879 -0.0900855 0)
(-0.0551253 -0.0584356 0)
(-0.016854 -0.0288416 0)
(0.0118094 -0.00307896 0)
(0.0312447 0.0176506 0)
(0.0420053 0.0326773 0)
(0.0452954 0.041847 0)
(0.0426346 0.0456983 0)
(0.0357492 0.0452995 0)
(0.0264022 0.0417601 0)
(0.016252 0.0356004 0)
(0.00711033 0.0261578 0)
(0.000796543 0.0113832 0)
(0.000995757 -0.0139234 0)
(0.00416199 -0.0242952 0)
(0.00458135 -0.0208791 0)
(0.000396311 -0.00872693 0)
(-0.00946617 0.00765948 0)
(-0.0255685 0.0255982 0)
(-0.0486538 0.0444877 0)
(-0.0797023 0.065001 0)
(-0.119428 0.0877948 0)
(-0.167649 0.112556 0)
(-0.22302 0.13783 0)
(-0.283237 0.161462 0)
(-0.345535 0.181234 0)
(-0.407221 0.195367 0)
(-0.466073 0.20279 0)
(-0.520506 0.203158 0)
(-0.569546 0.196694 0)
(-0.612688 0.183979 0)
(-0.649733 0.165754 0)
(-0.680682 0.142799 0)
(-0.705662 0.115873 0)
(-0.724878 0.0856806 0)
(-0.738542 0.0528625 0)
(-0.746843 0.0180245 0)
(-0.7499 -0.0182316 0)
(-0.74772 -0.0552886 0)
(-0.740093 -0.0924482 0)
(-0.726576 -0.128833 0)
(-0.706564 -0.163328 0)
(-0.679299 -0.194539 0)
(-0.643975 -0.220808 0)
(-0.599938 -0.24027 0)
(-0.546953 -0.251032 0)
(-0.485477 -0.251487 0)
(-0.416917 -0.240717 0)
(-0.343804 -0.218885 0)
(-0.269715 -0.187498 0)
(-0.198843 -0.149411 0)
(-0.135239 -0.108394 0)
(-0.0819025 -0.0683261 0)
(-0.0401242 -0.0323274 0)
(-0.00952925 -0.00226059 0)
(0.0110498 0.0211424 0)
(0.0228037 0.0376004 0)
(0.027161 0.0473294 0)
(0.0257851 0.0511112 0)
(0.0204667 0.04994 0)
(0.013079 0.0443207 0)
(0.0057497 0.0334782 0)
(0.000591068 0.0148945 0)
(0.000839929 -0.0158649 0)
(0.00148434 -0.024771 0)
(-0.00259488 -0.0166955 0)
(-0.0126851 0.00144915 0)
(-0.0295708 0.0244039 0)
(-0.0539264 0.0495716 0)
(-0.0866517 0.0766436 0)
(-0.128506 0.106084 0)
(-0.179364 0.137644 0)
(-0.237797 0.169779 0)
(-0.30128 0.200008 0)
(-0.366779 0.225698 0)
(-0.431381 0.244733 0)
(-0.492722 0.255852 0)
(-0.549144 0.258661 0)
(-0.59965 0.253441 0)
(-0.643765 0.240899 0)
(-0.68139 0.221944 0)
(-0.712701 0.197546 0)
(-0.738087 0.168655 0)
(-0.758083 0.136144 0)
(-0.773272 0.100763 0)
(-0.784222 0.0631345 0)
(-0.791422 0.0237914 0)
(-0.79521 -0.016817 0)
(-0.79572 -0.0582957 0)
(-0.79285 -0.100213 0)
(-0.786167 -0.141964 0)
(-0.774934 -0.182702 0)
(-0.758059 -0.221252 0)
(-0.734172 -0.256021 0)
(-0.701777 -0.284967 0)
(-0.659476 -0.305723 0)
(-0.606292 -0.315852 0)
(-0.54214 -0.313254 0)
(-0.468294 -0.296703 0)
(-0.387665 -0.266447 0)
(-0.304742 -0.224632 0)
(-0.225053 -0.175283 0)
(-0.154071 -0.123631 0)
(-0.0957985 -0.0748649 0)
(-0.0516951 -0.0327798 0)
(-0.0207457 0.000870449 0)
(-0.00074212 0.0259498 0)
(0.010311 0.0427903 0)
(0.0143162 0.0520141 0)
(0.0132094 0.0544181 0)
(0.00901423 0.0503553 0)
(0.00400125 0.0389282 0)
(0.000362289 0.0174929 0)
(0.00046517 -0.0160981 0)
(-0.00257261 -0.0209752 0)
(-0.0122834 -0.00661991 0)
(-0.0292314 0.0186563 0)
(-0.0539472 0.0492693 0)
(-0.0871824 0.0828747 0)
(-0.129661 0.11912 0)
(-0.181392 0.157659 0)
(-0.241051 0.19694 0)
(-0.306052 0.234252 0)
(-0.373158 0.266547 0)
(-0.439201 0.291287 0)
(-0.501576 0.306907 0)
(-0.558441 0.312872 0)
(-0.608679 0.309471 0)
(-0.651783 0.297537 0)
(-0.687731 0.278198 0)
(-0.716878 0.252696 0)
(-0.739873 0.222262 0)
(-0.757567 0.188028 0)
(-0.770885 0.150946 0)
(-0.780719 0.111752 0)
(-0.787873 0.0709873 0)
(-0.792996 0.0290278 0)
(-0.79654 -0.0138943 0)
(-0.798754 -0.0576233 0)
(-0.799688 -0.102011 0)
(-0.799053 -0.146806 0)
(-0.796211 -0.191568 0)
(-0.790102 -0.23552 0)
(-0.779235 -0.277405 0)
(-0.76168 -0.315385 0)
(-0.73516 -0.347028 0)
(-0.69736 -0.369388 0)
(-0.64645 -0.379285 0)
(-0.581697 -0.37388 0)
(-0.504109 -0.351466 0)
(-0.416957 -0.312301 0)
(-0.325819 -0.25921 0)
(-0.237859 -0.197616 0)
(-0.160272 -0.134599 0)
(-0.0982342 -0.0770028 0)
(-0.0533103 -0.029374 0)
(-0.0235756 0.00687061 0)
(-0.00555763 0.0324497 0)
(0.00361685 0.0482942 0)
(0.00646005 0.0552487 0)
(0.00529045 0.0535884 0)
(0.00248803 0.0423772 0)
(0.000209286 0.0191574 0)
(-0.000171715 -0.0137886 0)
(-0.00796432 -0.0118341 0)
(-0.0241191 0.0101976 0)
(-0.0484343 0.0435003 0)
(-0.0812279 0.0826349 0)
(-0.123136 0.125384 0)
(-0.174297 0.170817 0)
(-0.233639 0.217339 0)
(-0.298698 0.262098 0)
(-0.366137 0.301643 0)
(-0.432537 0.332911 0)
(-0.494991 0.35389 0)
(-0.551384 0.363774 0)
(-0.600413 0.362786 0)
(-0.641498 0.351869 0)
(-0.674671 0.332398 0)
(-0.70046 0.305949 0)
(-0.719769 0.274107 0)
(-0.733729 0.238328 0)
(-0.743539 0.199832 0)
(-0.750329 0.159535 0)
(-0.755086 0.118063 0)
(-0.758619 0.0757966 0)
(-0.761528 0.0329083 0)
(-0.764247 -0.0105711 0)
(-0.767088 -0.0546744 0)
(-0.77019 -0.0994826 0)
(-0.773463 -0.145058 0)
(-0.776574 -0.191337 0)
(-0.778848 -0.238 0)
(-0.77913 -0.284337 0)
(-0.775625 -0.329083 0)
(-0.765856 -0.370231 0)
(-0.746812 -0.404888 0)
(-0.715266 -0.429363 0)
(-0.668357 -0.439565 0)
(-0.604489 -0.431711 0)
(-0.524346 -0.403379 0)
(-0.43163 -0.354714 0)
(-0.333159 -0.289372 0)
(-0.237974 -0.214568 0)
(-0.155217 -0.139712 0)
(-0.0912447 -0.0736219 0)
(-0.0473994 -0.0215326 0)
(-0.020427 0.0158059 0)
(-0.00547048 0.0401154 0)
(0.00120609 0.0527799 0)
(0.00267474 0.0543881 0)
(0.0016063 0.0442026 0)
(0.000183957 0.0201686 0)
(-0.00107238 -0.00816844 0)
(-0.0144148 0.00340158 0)
(-0.0373652 0.0341367 0)
(-0.0690397 0.0760386 0)
(-0.109494 0.124125 0)
(-0.158983 0.175938 0)
(-0.216764 0.229503 0)
(-0.280678 0.281864 0)
(-0.347453 0.329206 0)
(-0.413476 0.367863 0)
(-0.475518 0.395203 0)
(-0.531136 0.409978 0)
(-0.57878 0.412221 0)
(-0.617753 0.402933 0)
(-0.648109 0.383735 0)
(-0.670536 0.356574 0)
(-0.68618 0.323448 0)
(-0.696434 0.286195 0)
(-0.702736 0.246338 0)
(-0.706386 0.205005 0)
(-0.708458 0.162933 0)
(-0.70978 0.120542 0)
(-0.710943 0.0780009 0)
(-0.71234 0.0352986 0)
(-0.714276 -0.00766671 0)
(-0.717017 -0.0510412 0)
(-0.720696 -0.0950223 0)
(-0.725411 -0.139823 0)
(-0.731181 -0.185609 0)
(-0.737838 -0.232443 0)
(-0.74483 -0.280191 0)
(-0.751024 -0.328329 0)
(-0.754527 -0.375641 0)
(-0.752522 -0.419941 0)
(-0.741271 -0.457883 0)
(-0.716488 -0.484961 0)
(-0.674182 -0.495905 0)
(-0.611839 -0.48566 0)
(-0.529742 -0.45089 0)
(-0.432073 -0.391671 0)
(-0.32716 -0.312797 0)
(-0.226232 -0.223846 0)
(-0.140478 -0.137179 0)
(-0.0771156 -0.0638185 0)
(-0.0365902 -0.00930808 0)
(-0.0137803 0.026806 0)
(-0.00262576 0.04715 0)
(0.00130395 0.0532518 0)
(0.00144715 0.0450203 0)
(0.000288225 0.0209464 0)
(-0.00217953 0.00130967 0)
(-0.0214257 0.02502 0)
(-0.0510199 0.0650592 0)
(-0.0894982 0.11574 0)
(-0.136547 0.172607 0)
(-0.19181 0.232554 0)
(-0.253589 0.292326 0)
(-0.318879 0.347801 0)
(-0.384011 0.394672 0)
(-0.445466 0.429521 0)
(-0.500439 0.450439 0)
(-0.547071 0.457082 0)
(-0.584481 0.450387 0)
(-0.612696 0.432181 0)
(-0.632514 0.404791 0)
(-0.645297 0.370677 0)
(-0.652695 0.33212 0)
(-0.656369 0.29099 0)
(-0.657769 0.248651 0)
(-0.658022 0.205955 0)
(-0.657913 0.163348 0)
(-0.65794 0.120985 0)
(-0.658376 0.0788354 0)
(-0.659356 0.0367703 0)
(-0.660999 -0.00537214 0)
(-0.663449 -0.0477666 0)
(-0.666797 -0.0905991 0)
(-0.67123 -0.134066 0)
(-0.67698 -0.178388 0)
(-0.684247 -0.223824 0)
(-0.693081 -0.270625 0)
(-0.703216 -0.31888 0)
(-0.71379 -0.368287 0)
(-0.722959 -0.417805 0)
(-0.727607 -0.465201 0)
(-0.723325 -0.506624 0)
(-0.7048 -0.536518 0)
(-0.666772 -0.548159 0)
(-0.605636 -0.534952 0)
(-0.521342 -0.492476 0)
(-0.41886 -0.42088 0)
(-0.308419 -0.326722 0)
(-0.20374 -0.222888 0)
(-0.117977 -0.1254 0)
(-0.0584554 -0.0473755 0)
(-0.0236437 0.00624362 0)
(-0.00618884 0.0377617 0)
(0.000679811 0.0503915 0)
(0.00181015 0.0453563 0)
(0.000485826 0.0218741 0)
(-0.00335789 0.0148793 0)
(-0.0283503 0.0528198 0)
(-0.0639637 0.10234 0)
(-0.108201 0.161519 0)
(-0.160269 0.22636 0)
(-0.219096 0.292806 0)
(-0.282159 0.356346 0)
(-0.345943 0.412056 0)
(-0.406745 0.455602 0)
(-0.461398 0.484162 0)
(-0.507675 0.49675 0)
(-0.54442 0.494038 0)
(-0.571535 0.477937 0)
(-0.589851 0.451125 0)
(-0.600889 0.416556 0)
(-0.606525 0.377018 0)
(-0.608641 0.334809 0)
(-0.608841 0.291567 0)
(-0.608311 0.248284 0)
(-0.607796 0.205425 0)
(-0.607686 0.163102 0)
(-0.608123 0.121231 0)
(-0.609101 0.0796479 0)
(-0.610556 0.0381754 0)
(-0.612448 -0.00334617 0)
(-0.614817 -0.0450484 0)
(-0.617715 -0.0870356 0)
(-0.621295 -0.129409 0)
(-0.625806 -0.172325 0)
(-0.631575 -0.216026 0)
(-0.638998 -0.260845 0)
(-0.648443 -0.307191 0)
(-0.660002 -0.355443 0)
(-0.673126 -0.405668 0)
(-0.686176 -0.457098 0)
(-0.695925 -0.507449 0)
(-0.697308 -0.552302 0)
(-0.683818 -0.584866 0)
(-0.648821 -0.596574 0)
(-0.587689 -0.578897 0)
(-0.500251 -0.526287 0)
(-0.39271 -0.439519 0)
(-0.277807 -0.328019 0)
(-0.172116 -0.209264 0)
(-0.0902939 -0.103563 0)
(-0.0383209 -0.0252698 0)
(-0.0113366 0.0229101 0)
(-0.000154217 0.045368 0)
(0.00229729 0.0453549 0)
(0.000720656 0.0231566 0)
(-0.00444349 0.0323883 0)
(-0.0345359 0.0861365 0)
(-0.0751396 0.144923 0)
(-0.123721 0.211871 0)
(-0.178945 0.283347 0)
(-0.239058 0.35422 0)
(-0.300956 0.418932 0)
(-0.360945 0.472178 0)
(-0.415562 0.509984 0)
(-0.462169 0.530386 0)
(-0.499236 0.533477 0)
(-0.526411 0.521036 0)
(-0.544429 0.495978 0)
(-0.554871 0.461744 0)
(-0.559788 0.421702 0)
(-0.561265 0.378669 0)
(-0.561077 0.334659 0)
(-0.560489 0.290852 0)
(-0.56024 0.247758 0)
(-0.560638 0.205441 0)
(-0.561711 0.163739 0)
(-0.563349 0.122422 0)
(-0.565392 0.0812758 0)
(-0.567687 0.0401355 0)
(-0.570128 -0.00111449 0)
(-0.572713 -0.0425377 0)
(-0.575469 -0.0841607 0)
(-0.578455 -0.125999 0)
(-0.581827 -0.1681 0)
(-0.585849 -0.210572 0)
(-0.59093 -0.253631 0)
(-0.597613 -0.297677 0)
(-0.606504 -0.343318 0)
(-0.618076 -0.391259 0)
(-0.632245 -0.441972 0)
(-0.647668 -0.495053 0)
(-0.660997 -0.548238 0)
(-0.666474 -0.596381 0)
(-0.656359 -0.631019 0)
(-0.622555 -0.641247 0)
(-0.559464 -0.616321 0)
(-0.467288 -0.549803 0)
(-0.354336 -0.444129 0)
(-0.236686 -0.313372 0)
(-0.133897 -0.181257 0)
(-0.0609071 -0.0724204 0)
(-0.0200561 -0.00019859 0)
(-0.00226815 0.0369445 0)
(0.00247008 0.0446308 0)
(0.000940067 0.0247547 0)
(-0.00528803 0.053275 0)
(-0.0394217 0.123912 0)
(-0.0836896 0.191434 0)
(-0.134991 0.265061 0)
(-0.191453 0.341491 0)
(-0.250774 0.414568 0)
(-0.309539 0.478 0)
(-0.364151 0.52649 0)
(-0.411581 0.556737 0)
(-0.449838 0.567836 0)
(-0.478172 0.561075 0)
(-0.497059 0.539382 0)
(-0.507996 0.506594 0)
(-0.513108 0.466698 0)
(-0.514659 0.423152 0)
(-0.514604 0.378477 0)
(-0.514332 0.334157 0)
(-0.514613 0.290805 0)
(-0.515717 0.248461 0)
(-0.517594 0.206883 0)
(-0.52005 0.165761 0)
(-0.522871 0.124825 0)
(-0.525872 0.0838859 0)
(-0.528915 0.0428279 0)
(-0.53191 0.00159188 0)
(-0.534862 -0.0398351 0)
(-0.537791 -0.081438 0)
(-0.540686 -0.12319 0)
(-0.543603 -0.165059 0)
(-0.546659 -0.207029 0)
(-0.550079 -0.249153 0)
(-0.554251 -0.291632 0)
(-0.559794 -0.334911 0)
(-0.567554 -0.379757 0)
(-0.578386 -0.42723 0)
(-0.592645 -0.47832 0)
(-0.609329 -0.533045 0)
(-0.625015 -0.589052 0)
(-0.633132 -0.640149 0)
(-0.624442 -0.675665 0)
(-0.589332 -0.681735 0)
(-0.521659 -0.645162 0)
(-0.422909 -0.559378 0)
(-0.30469 -0.430478 0)
(-0.187305 -0.279818 0)
(-0.0928429 -0.138947 0)
(-0.033962 -0.0351827 0)
(-0.00650261 0.0231752 0)
(0.00201282 0.0423141 0)
(0.00111656 0.0264181 0)
(-0.00577017 0.0766339 0)
(-0.0425953 0.164813 0)
(-0.08904 0.240329 0)
(-0.141396 0.319318 0)
(-0.197312 0.398892 0)
(-0.254126 0.472051 0)
(-0.30836 0.532101 0)
(-0.356718 0.574093 0)
(-0.396727 0.595639 0)
(-0.427112 0.597038 0)
(-0.447912 0.580834 0)
(-0.460352 0.551044 0)
(-0.466492 0.512228 0)
(-0.468699 0.46859 0)
(-0.469118 0.423339 0)
(-0.469309 0.378431 0)
(-0.470136 0.334703 0)
(-0.47188 0.292227 0)
(-0.474452 0.250695 0)
(-0.477602 0.209707 0)
(-0.481068 0.16893 0)
(-0.484653 0.128141 0)
(-0.488234 0.087216 0)
(-0.491733 0.0460979 0)
(-0.495115 0.00477006 0)
(-0.498413 -0.0367585 0)
(-0.501652 -0.0784639 0)
(-0.5048 -0.120317 0)
(-0.507852 -0.162264 0)
(-0.510805 -0.204237 0)
(-0.513693 -0.246179 0)
(-0.516654 -0.288084 0)
(-0.520032 -0.3301 0)
(-0.524477 -0.37269 0)
(-0.530993 -0.416807 0)
(-0.540797 -0.463905 0)
(-0.554743 -0.515523 0)
(-0.572157 -0.572121 0)
(-0.589341 -0.631093 0)
(-0.598612 -0.684628 0)
(-0.589029 -0.718931 0)
(-0.549568 -0.716446 0)
(-0.474266 -0.661749 0)
(-0.367342 -0.549924 0)
(-0.245335 -0.394022 0)
(-0.133347 -0.226071 0)
(-0.0540409 -0.0858278 0)
(-0.0133494 0.00164224 0)
(0.000773699 0.0372242 0)
(0.001254 0.027788 0)
(-0.00581434 0.101331 0)
(-0.0438243 0.207359 0)
(-0.090927 0.29003 0)
(-0.142767 0.372992 0)
(-0.196617 0.45397 0)
(-0.249642 0.52537 0)
(-0.298507 0.580418 0)
(-0.340348 0.614779 0)
(-0.373312 0.627156 0)
(-0.396844 0.619134 0)
(-0.411692 0.594489 0)
(-0.419655 0.558158 0)
(-0.423077 0.515121 0)
(-0.424261 0.469458 0)
(-0.424981 0.423838 0)
(-0.426274 0.379516 0)
(-0.428503 0.336707 0)
(-0.431582 0.295072 0)
(-0.435229 0.254119 0)
(-0.439147 0.213432 0)
(-0.443121 0.172745 0)
(-0.447033 0.13192 0)
(-0.450842 0.0909052 0)
(-0.454537 0.049688 0)
(-0.458124 0.0082714 0)
(-0.461662 -0.0333344 0)
(-0.465192 -0.0751146 0)
(-0.468686 -0.11706 0)
(-0.472118 -0.159136 0)
(-0.475438 -0.201283 0)
(-0.478582 -0.243413 0)
(-0.481504 -0.285416 0)
(-0.484247 -0.327219 0)
(-0.487063 -0.368915 0)
(-0.490594 -0.410981 0)
(-0.496019 -0.454551 0)
(-0.504922 -0.501536 0)
(-0.518601 -0.554138 0)
(-0.536582 -0.613208 0)
(-0.554624 -0.675405 0)
(-0.563479 -0.730298 0)
(-0.55016 -0.759763 0)
(-0.502622 -0.74195 0)
(-0.416555 -0.660303 0)
(-0.301076 -0.515043 0)
(-0.179328 -0.33122 0)
(-0.080519 -0.154852 0)
(-0.0231572 -0.0304547 0)
(-0.00128089 0.028029 0)
(0.00137179 0.0284872 0)
(-0.00539729 0.126125 0)
(-0.0430524 0.250043 0)
(-0.0893696 0.339047 0)
(-0.139312 0.424658 0)
(-0.189897 0.505516 0)
(-0.238285 0.573715 0)
(-0.281428 0.622672 0)
(-0.316967 0.648872 0)
(-0.343673 0.652212 0)
(-0.361641 0.635573 0)
(-0.372179 0.603839 0)
(-0.377419 0.562617 0)
(-0.379715 0.516978 0)
(-0.381065 0.470577 0)
(-0.382752 0.425376 0)
(-0.385308 0.381932 0)
(-0.388716 0.339964 0)
(-0.392691 0.298897 0)
(-0.396912 0.258207 0)
(-0.40114 0.217556 0)
(-0.405251 0.176781 0)
(-0.409215 0.135829 0)
(-0.413057 0.0946995 0)
(-0.416806 0.0534039 0)
(-0.420488 0.0119462 0)
(-0.424174 -0.0296734 0)
(-0.427915 -0.0714539 0)
(-0.431695 -0.11341 0)
(-0.435492 -0.155537 0)
(-0.439261 -0.197809 0)
(-0.442924 -0.240163 0)
(-0.446365 -0.282491 0)
(-0.449458 -0.324637 0)
(-0.452144 -0.366459 0)
(-0.454597 -0.407974 0)
(-0.457458 -0.44968 0)
(-0.462066 -0.492968 0)
(-0.470385 -0.540341 0)
(-0.484155 -0.59474 0)
(-0.502866 -0.657188 0)
(-0.521137 -0.722745 0)
(-0.527453 -0.77678 0)
(-0.50668 -0.795271 0)
(-0.446861 -0.752076 0)
(-0.347715 -0.632543 0)
(-0.225982 -0.448179 0)
(-0.112343 -0.242562 0)
(-0.036403 -0.076114 0)
(-0.00422473 0.0132271 0)
(0.00146136 0.0281061 0)
(-0.00454368 0.149774 0)
(-0.0403722 0.291427 0)
(-0.08461 0.386059 0)
(-0.131516 0.473172 0)
(-0.177963 0.552697 0)
(-0.221244 0.616698 0)
(-0.258688 0.659004 0)
(-0.288458 0.677046 0)
(-0.309899 0.671953 0)
(-0.323628 0.647827 0)
(-0.331316 0.610468 0)
(-0.335184 0.565861 0)
(-0.337377 0.518873 0)
(-0.339461 0.472535 0)
(-0.342228 0.428069 0)
(-0.345817 0.385438 0)
(-0.349992 0.34404 0)
(-0.354417 0.303223 0)
(-0.358826 0.262534 0)
(-0.36308 0.221751 0)
(-0.367145 0.180808 0)
(-0.371056 0.139714 0)
(-0.374874 0.098494 0)
(-0.378642 0.0571621 0)
(-0.382384 0.0157129 0)
(-0.38617 -0.0258664 0)
(-0.390057 -0.067587 0)
(-0.394037 -0.109482 0)
(-0.398095 -0.151568 0)
(-0.402208 -0.193853 0)
(-0.406322 -0.236318 0)
(-0.410334 -0.278903 0)
(-0.414087 -0.32148 0)
(-0.417393 -0.363844 0)
(-0.420106 -0.405769 0)
(-0.422317 -0.44721 0)
(-0.424691 -0.48873 0)
(-0.428802 -0.532099 0)
(-0.437059 -0.580615 0)
(-0.451522 -0.638053 0)
(-0.471158 -0.705067 0)
(-0.488576 -0.773463 0)
(-0.489258 -0.822025 0)
(-0.45631 -0.819411 0)
(-0.380112 -0.737 0)
(-0.267983 -0.568456 0)
(-0.146944 -0.346008 0)
(-0.0534025 -0.137551 0)
(-0.00822329 -0.00881513 0)
(0.00147475 0.0261884 0)
(-0.0033161 0.171137 0)
(-0.0359857 0.330215 0)
(-0.0770409 0.429955 0)
(-0.120023 0.517674 0)
(-0.161758 0.595007 0)
(-0.199763 0.654262 0)
(-0.231787 0.689829 0)
(-0.256488 0.700147 0)
(-0.273687 0.687541 0)
(-0.284365 0.657197 0)
(-0.29035 0.615593 0)
(-0.29375 0.568821 0)
(-0.296364 0.521326 0)
(-0.299306 0.475436 0)
(-0.302964 0.4317 0)
(-0.307227 0.389649 0)
(-0.31178 0.34852 0)
(-0.31633 0.3077 0)
(-0.320709 0.266853 0)
(-0.324869 0.22587 0)
(-0.328841 0.184755 0)
(-0.332694 0.14355 0)
(-0.3365 0.102282 0)
(-0.3403 0.0609553 0)
(-0.344108 0.0195517 0)
(-0.347981 -0.0219542 0)
(-0.351983 -0.0635813 0)
(-0.356109 -0.105375 0)
(-0.360345 -0.147364 0)
(-0.364685 -0.189577 0)
(-0.3691 -0.232033 0)
(-0.373528 -0.274721 0)
(-0.377855 -0.317581 0)
(-0.381893 -0.360461 0)
(-0.38539 -0.403101 0)
(-0.388121 -0.445186 0)
(-0.390137 -0.486615 0)
(-0.392193 -0.528114 0)
(-0.396196 -0.572089 0)
(-0.40506 -0.62295 0)
(-0.420944 -0.685212 0)
(-0.441461 -0.757876 0)
(-0.455933 -0.826687 0)
(-0.446331 -0.860836 0)
(-0.395701 -0.821492 0)
(-0.300776 -0.683199 0)
(-0.180775 -0.459514 0)
(-0.0736082 -0.215119 0)
(-0.0135235 -0.0398833 0)
(0.00139038 0.0222534 0)
(-0.00180348 0.189233 0)
(-0.0301642 0.365291 0)
(-0.0671355 0.469852 0)
(-0.105542 0.557567 0)
(-0.142237 0.632208 0)
(-0.175011 0.686573 0)
(-0.202038 0.715707 0)
(-0.222411 0.719046 0)
(-0.236301 0.700018 0)
(-0.244889 0.664708 0)
(-0.249974 0.620039 0)
(-0.253414 0.571992 0)
(-0.256614 0.52447 0)
(-0.260287 0.479119 0)
(-0.264539 0.435947 0)
(-0.269139 0.394209 0)
(-0.273789 0.35311 0)
(-0.27828 0.312133 0)
(-0.282537 0.271065 0)
(-0.286579 0.229882 0)
(-0.290472 0.188633 0)
(-0.294294 0.147362 0)
(-0.298112 0.106088 0)
(-0.301962 0.0648004 0)
(-0.305846 0.0234682 0)
(-0.309805 -0.0179443 0)
(-0.313913 -0.0594601 0)
(-0.318168 -0.101134 0)
(-0.322546 -0.143001 0)
(-0.32705 -0.185102 0)
(-0.331667 -0.227473 0)
(-0.336368 -0.270142 0)
(-0.341085 -0.313107 0)
(-0.345689 -0.356304 0)
(-0.34996 -0.39955 0)
(-0.353591 -0.442503 0)
(-0.356295 -0.484749 0)
(-0.358122 -0.526185 0)
(-0.360031 -0.567909 0)
(-0.364444 -0.61337 0)
(-0.374815 -0.668444 0)
(-0.392827 -0.737809 0)
(-0.413289 -0.816146 0)
(-0.420838 -0.878774 0)
(-0.394601 -0.882567 0)
(-0.321475 -0.784898 0)
(-0.210272 -0.576016 0)
(-0.0954223 -0.306778 0)
(-0.0203503 -0.0816544 0)
(0.00125045 0.0158173 0)
(-0.000109989 0.203284 0)
(-0.0232142 0.395729 0)
(-0.0553919 0.505076 0)
(-0.0887758 0.592473 0)
(-0.120286 0.664252 0)
(-0.148007 0.713929 0)
(-0.170512 0.737236 0)
(-0.187245 0.73454 0)
(-0.198602 0.710228 0)
(-0.205804 0.671091 0)
(-0.210487 0.62429 0)
(-0.214183 0.575554 0)
(-0.217917 0.528215 0)
(-0.222093 0.483331 0)
(-0.226651 0.440508 0)
(-0.231336 0.39886 0)
(-0.235911 0.357637 0)
(-0.240258 0.316436 0)
(-0.24437 0.275147 0)
(-0.248306 0.233804 0)
(-0.252142 0.192468 0)
(-0.255951 0.151175 0)
(-0.259793 0.109929 0)
(-0.263698 0.0687074 0)
(-0.267657 0.0274678 0)
(-0.271699 -0.0138348 0)
(-0.27591 -0.0552244 0)
(-0.280295 -0.0967658 0)
(-0.284813 -0.138499 0)
(-0.289471 -0.180469 0)
(-0.29426 -0.222723 0)
(-0.299165 -0.265306 0)
(-0.304153 -0.308256 0)
(-0.309147 -0.351577 0)
(-0.314002 -0.395189 0)
(-0.318461 -0.438853 0)
(-0.322156 -0.482123 0)
(-0.324758 -0.524479 0)
(-0.326406 -0.565937 0)
(-0.328461 -0.608351 0)
(-0.334063 -0.65686 0)
(-0.347026 -0.719003 0)
(-0.367348 -0.79771 0)
(-0.384965 -0.878316 0)
(-0.379083 -0.920218 0)
(-0.329145 -0.868444 0)
(-0.232678 -0.688501 0)
(-0.116686 -0.408536 0)
(-0.0287032 -0.135278 0)
(0.00111744 0.00636819 0)
(0.00165468 0.212733 0)
(-0.0154521 0.420799 0)
(-0.0422921 0.535134 0)
(-0.0703668 0.622184 0)
(-0.0966782 0.691219 0)
(-0.119586 0.73668 0)
(-0.138027 0.754975 0)
(-0.151705 0.74729 0)
(-0.161121 0.7188 0)
(-0.167409 0.676813 0)
(-0.171951 0.628575 0)
(-0.175931 0.579493 0)
(-0.180047 0.532379 0)
(-0.184488 0.487815 0)
(-0.189121 0.445146 0)
(-0.193721 0.403437 0)
(-0.198129 0.362014 0)
(-0.202298 0.320584 0)
(-0.206267 0.279109 0)
(-0.210109 0.237652 0)
(-0.213897 0.196273 0)
(-0.217694 0.154993 0)
(-0.221551 0.113804 0)
(-0.225501 0.0726719 0)
(-0.229528 0.0315459 0)
(-0.233643 -0.00962692 0)
(-0.237952 -0.050871 0)
(-0.242473 -0.0922635 0)
(-0.247143 -0.133848 0)
(-0.251969 -0.175675 0)
(-0.256941 -0.217794 0)
(-0.262048 -0.26026 0)
(-0.267271 -0.30313 0)
(-0.272568 -0.346452 0)
(-0.277852 -0.390226 0)
(-0.282949 -0.434337 0)
(-0.287551 -0.478452 0)
(-0.291233 -0.521981 0)
(-0.293668 -0.564334 0)
(-0.295233 -0.605925 0)
(-0.297966 -0.650078 0)
(-0.305907 -0.704431 0)
(-0.322516 -0.777471 0)
(-0.343831 -0.865701 0)
(-0.352692 -0.937181 0)
(-0.324586 -0.931452 0)
(-0.246473 -0.791104 0)
(-0.135347 -0.515345 0)
(-0.0381921 -0.200526 0)
(0.000969088 -0.00656311 0)
(0.00338458 0.217269 0)
(-0.00718689 0.439913 0)
(-0.028285 0.559684 0)
(-0.0508785 0.646611 0)
(-0.0720515 0.713252 0)
(-0.0903989 0.75517 0)
(-0.10517 0.769401 0)
(-0.116251 0.757805 0)
(-0.124143 0.726164 0)
(-0.1298 0.682136 0)
(-0.134299 0.632954 0)
(-0.138491 0.583703 0)
(-0.14281 0.53676 0)
(-0.147313 0.492363 0)
(-0.151852 0.449699 0)
(-0.156262 0.407841 0)
(-0.160455 0.366201 0)
(-0.164433 0.324568 0)
(-0.168258 0.282952 0)
(-0.172004 0.241428 0)
(-0.175736 0.200044 0)
(-0.179506 0.158808 0)
(-0.183361 0.117698 0)
(-0.187337 0.0766777 0)
(-0.191418 0.0356902 0)
(-0.195589 -0.00532606 0)
(-0.199988 -0.0463986 0)
(-0.20465 -0.0876167 0)
(-0.209486 -0.129032 0)
(-0.214501 -0.170696 0)
(-0.219682 -0.212664 0)
(-0.225019 -0.254992 0)
(-0.230495 -0.297748 0)
(-0.236085 -0.341001 0)
(-0.241736 -0.384806 0)
(-0.247339 -0.429143 0)
(-0.252677 -0.473823 0)
(-0.25738 -0.518366 0)
(-0.260973 -0.562004 0)
(-0.263223 -0.604226 0)
(-0.265005 -0.64645 0)
(-0.269409 -0.694613 0)
(-0.281221 -0.759395 0)
(-0.301631 -0.846895 0)
(-0.319381 -0.937854 0)
(-0.309829 -0.973995 0)
(-0.251411 -0.879703 0)
(-0.149924 -0.62207 0)
(-0.0480868 -0.275636 0)
(0.000664818 -0.0234215 0)
(0.0049382 0.216702 0)
(0.00127624 0.452731 0)
(-0.0137698 0.578467 0)
(-0.0307917 0.665741 0)
(-0.0469195 0.730517 0)
(-0.060932 0.769698 0)
(-0.0723434 0.780886 0)
(-0.0811531 0.766444 0)
(-0.0877843 0.732585 0)
(-0.0929534 0.68718 0)
(-0.0974116 0.637396 0)
(-0.101703 0.588045 0)
(-0.106061 0.54118 0)
(-0.110467 0.496814 0)
(-0.114798 0.454057 0)
(-0.118952 0.412015 0)
(-0.122898 0.370174 0)
(-0.126672 0.32838 0)
(-0.130341 0.286671 0)
(-0.133976 0.245119 0)
(-0.137632 0.203762 0)
(-0.141352 0.162596 0)
(-0.145182 0.121589 0)
(-0.149162 0.0807044 0)
(-0.15328 0.0398857 0)
(-0.15749 -0.000936619 0)
(-0.161964 -0.0418073 0)
(-0.166768 -0.0828155 0)
(-0.171783 -0.12403 0)
(-0.177006 -0.165506 0)
(-0.182426 -0.207298 0)
(-0.188028 -0.249466 0)
(-0.193796 -0.29208 0)
(-0.199712 -0.335222 0)
(-0.205739 -0.378976 0)
(-0.211807 -0.423391 0)
(-0.217768 -0.468397 0)
(-0.223346 -0.513669 0)
(-0.228102 -0.558507 0)
(-0.231554 -0.602002 0)
(-0.233751 -0.644139 0)
(-0.236479 -0.688523 0)
(-0.244176 -0.745212 0)
(-0.261222 -0.826576 0)
(-0.282804 -0.927193 0)
(-0.287535 -0.997999 0)
(-0.248265 -0.952048 0)
(-0.15968 -0.724213 0)
(-0.0575535 -0.357846 0)
(-5.06187e-06 -0.044633 0)
(0.00616061 0.211263 0)
(0.00957422 0.458809 0)
(0.000928762 0.591392 0)
(-0.010507 0.679585 0)
(-0.0216889 0.743166 0)
(-0.031542 0.780494 0)
(-0.0398077 0.789685 0)
(-0.0465475 0.773433 0)
(-0.0520586 0.738203 0)
(-0.056785 0.69197 0)
(-0.061152 0.641826 0)
(-0.0654287 0.592385 0)
(-0.0696908 0.545499 0)
(-0.0738853 0.501057 0)
(-0.0779294 0.458148 0)
(-0.0817803 0.41592 0)
(-0.0854529 0.373911 0)
(-0.0890018 0.332004 0)
(-0.0924942 0.290246 0)
(-0.0959919 0.248703 0)
(-0.0995443 0.207404 0)