/*--------------------------------*- C++ -*----------------------------------*\
  =========                 |
  \\      /  F ield         | OpenFOAM: The Open Source CFD Toolbox
   \\    /   O peration     | Website:  https://openfoam.org
    \\  /    A nd           | Version:  7
     \\/     M anipulation  |
\*---------------------------------------------------------------------------*/
FoamFile
{
    version     2.0;
    format      ascii;
    class       volScalarField;
    location    "350";
    object      p;
}
// * * * * * * * * * * * * * * * * * * * * * * * * * * * * * * * * * * * * * //

dimensions      [0 2 -2 0 0 0 0];

internalField   nonuniform List<scalar> 
2500
(
6.02637e-07
7.18199e-05
-8.58919e-06
-0.000308168
-0.000783424
-0.0013719
-0.0020335
-0.00276382
-0.00358873
-0.004549
-0.00568476
-0.0070259
-0.00858935
-0.0103747
-0.0123585
-0.014486
-0.0166646
-0.018762
-0.0206121
-0.0220319
-0.0228453
-0.0229117
-0.0221546
-0.0205892
-0.0183402
-0.0156333
-0.0127896
-0.0102269
-0.00840865
-0.00777579
-0.00866563
-0.0112219
-0.0153356
-0.0207139
-0.0269006
-0.0333341
-0.0394831
-0.0449431
-0.0494796
-0.0530148
-0.0555965
-0.0573582
-0.0584735
-0.0591184
-0.0594449
-0.0595694
-0.05957
-0.0594896
-0.0593507
-0.0592116
-6.80606e-05
4.53985e-06
-7.98197e-05
-0.000376999
-0.000830149
-0.0013751
-0.00197682
-0.0026369
-0.00338407
-0.00425875
-0.00529982
-0.00653726
-0.00799179
-0.00967109
-0.0115634
-0.0136316
-0.0158045
-0.0179697
-0.0199737
-0.0216315
-0.0227493
-0.0231561
-0.0227367
-0.0214654
-0.0194359
-0.016864
-0.0140866
-0.0115396
-0.00970551
-0.00904449
-0.00990976
-0.0124659
-0.0166343
-0.0220711
-0.0282735
-0.0346936
-0.0407761
-0.0460765
-0.0503507
-0.0535678
-0.0558438
-0.0573589
-0.0583066
-0.0588593
-0.0591537
-0.0592874
-0.0593225
-0.0592887
-0.0591875
-0.0590558
-1.75937e-05
5.0798e-05
-5.67481e-05
-0.000379959
-0.000833045
-0.00134024
-0.00187149
-0.00243981
-0.0030864
-0.0038589
-0.00480153
-0.00595477
-0.00735683
-0.0090423
-0.0110312
-0.0133121
-0.0158243
-0.0184452
-0.0209911
-0.0232343
-0.024934
-0.025875
-0.0259043
-0.0249693
-0.0231609
-0.0207055
-0.0179399
-0.015298
-0.013274
-0.0123515
-0.0129168
-0.0151739
-0.0190834
-0.0243486
-0.0304632
-0.0368066
-0.0427974
-0.0479905
-0.0521015
-0.0550605
-0.056994
-0.0581461
-0.0587704
-0.0590719
-0.0591956
-0.0592318
-0.0592274
-0.0591923
-0.0590967
-0.0589525
0.000230578
0.000268107
0.000102882
-0.00027918
-0.000755528
-0.00123727
-0.00170365
-0.00218702
-0.00274866
-0.00345983
-0.00439425
-0.00563177
-0.00725766
-0.00934912
-0.0119489
-0.0150361
-0.0185066
-0.0221705
-0.0257706
-0.0290147
-0.0316171
-0.0333373
-0.0340098
-0.0335698
-0.0320879
-0.0297661
-0.0269161
-0.0239589
-0.0213903
-0.0197196
-0.0193885
-0.020682
-0.0236551
-0.0281001
-0.0335704
-0.039464
-0.0451567
-0.0501257
-0.0540705
-0.0568983
-0.0586568
-0.059555
-0.0598732
-0.0598716
-0.0597355
-0.0595751
-0.0594414
-0.0593357
-0.0592059
-0.0590411
0.000711208
0.000680328
0.000420238
-4.26278e-05
-0.000554232
-0.00102847
-0.00146008
-0.00190942
-0.0024776
-0.0032871
-0.00447556
-0.00619139
-0.0085741
-0.0117189
-0.015639
-0.0202421
-0.0253299
-0.0306199
-0.0357802
-0.0404692
-0.0443718
-0.0472305
-0.048867
-0.0491964
-0.0482474
-0.046165
-0.0432131
-0.0397764
-0.0363271
-0.0333817
-0.0314355
-0.0308812
-0.0319261
-0.0345328
-0.0384056
-0.0430418
-0.0478408
-0.0522389
-0.0558316
-0.0584276
-0.0600561
-0.0608718
-0.0610649
-0.0608848
-0.0605509
-0.0602072
-0.0599279
-0.0597265
-0.0595504
-0.0593737
0.00146811
0.00133308
0.000952791
0.000400629
-0.000165947
-0.000672973
-0.00114565
-0.00169742
-0.00249827
-0.00375515
-0.00569436
-0.00853003
-0.0124171
-0.0174049
-0.0234114
-0.0302262
-0.037538
-0.0449743
-0.0521414
-0.0586595
-0.0641923
-0.0684702
-0.071306
-0.0726013
-0.072354
-0.0706477
-0.0676791
-0.063768
-0.0593214
-0.0548148
-0.0507523
-0.0476077
-0.0457513
-0.0453743
-0.0464356
-0.0486554
-0.0515723
-0.0546553
-0.0574342
-0.0595951
-0.0610139
-0.061736
-0.0619245
-0.0617417
-0.0613587
-0.060935
-0.0605703
-0.0603024
-0.0600974
-0.0599263
0.00253942
0.00227555
0.00176598
0.001114
0.00045649
-0.000163974
-0.000836309
-0.00175708
-0.00319666
-0.0054658
-0.00886629
-0.0136261
-0.0198397
-0.0274373
-0.0361911
-0.0457509
-0.0556912
-0.0655589
-0.074913
-0.0833554
-0.0905532
-0.0962524
-0.100282
-0.102553
-0.103059
-0.101853
-0.0990572
-0.0949062
-0.0897008
-0.083813
-0.0776741
-0.071751
-0.0665034
-0.0623238
-0.059468
-0.057997
-0.0577548
-0.0584037
-0.0595151
-0.0606845
-0.0616207
-0.0621817
-0.0623642
-0.0622554
-0.0619591
-0.0615865
-0.0612374
-0.0609695
-0.0607743
-0.0606296
0.00393104
0.00353116
0.00289152
0.00211732
0.00130093
0.000413666
-0.000730777
-0.00244256
-0.00510734
-0.00911874
-0.0147905
-0.0222754
-0.0315228
-0.0422846
-0.0541589
-0.0666513
-0.0792354
-0.0914031
-0.102702
-0.112758
-0.121287
-0.128092
-0.133052
-0.136106
-0.137272
-0.136611
-0.134194
-0.130164
-0.124704
-0.118044
-0.110468
-0.102327
-0.094033
-0.0860422
-0.078817
-0.0727599
-0.0681373
-0.0650148
-0.0632363
-0.0624692
-0.0623081
-0.0623905
-0.06247
-0.0624386
-0.062292
-0.0620713
-0.0618391
-0.0616494
-0.06151
-0.0614099
0.00558731
0.00505848
0.00428382
0.00334467
0.00224423
0.00084312
-0.00117189
-0.00423731
-0.00882983
-0.0153554
-0.0240397
-0.0348632
-0.0475601
-0.0616695
-0.0766128
-0.0917738
-0.106567
-0.120484
-0.133121
-0.144183
-0.153477
-0.160896
-0.166385
-0.169926
-0.171565
-0.171398
-0.169469
-0.165856
-0.160643
-0.153928
-0.145837
-0.136539
-0.126278
-0.115399
-0.104366
-0.0937491
-0.0841681
-0.0761824
-0.0701551
-0.0661387
-0.0638564
-0.0628112
-0.0624691
-0.0624148
-0.062417
-0.062399
-0.0623558
-0.0623102
-0.062266
-0.0622215
0.0073567
0.0067132
0.00579226
0.00460581
0.00302359
0.000765548
-0.0026209
-0.00767586
-0.0148962
-0.0245943
-0.0368005
-0.0512436
-0.0674039
-0.0846091
-0.102139
-0.119318
-0.135575
-0.150476
-0.163725
-0.175146
-0.184655
-0.192236
-0.197898
-0.201661
-0.203588
-0.203803
-0.202342
-0.199248
-0.19455
-0.188267
-0.180407
-0.170982
-0.160039
-0.147706
-0.134253
-0.120157
-0.106124
-0.093043
-0.0818362
-0.0732116
-0.067422
-0.0641705
-0.0627582
-0.0623951
-0.0624702
-0.0626523
-0.0628334
-0.0629722
-0.0630481
-0.0630632
0.00898019
0.00824102
0.00713802
0.00557097
0.00324116
-0.000285084
-0.00558243
-0.0132303
-0.0236413
-0.0369216
-0.0528191
-0.0707686
-0.0900028
-0.109687
-0.129038
-0.147411
-0.164337
-0.179516
-0.192793
-0.204114
-0.213491
-0.220972
-0.226608
-0.230441
-0.232535
-0.233016
-0.231918
-0.22927
-0.22509
-0.219368
-0.212064
-0.203109
-0.192413
-0.179907
-0.165606
-0.149702
-0.132685
-0.115418
-0.0991079
-0.0850886
-0.0744326
-0.0675379
-0.0639659
-0.0626939
-0.0626194
-0.0629621
-0.0633609
-0.063697
-0.0639025
-0.0639778
0.0101039
0.00927356
0.00792124
0.0057963
0.00241291
-0.00280487
-0.0105023
-0.0212032
-0.0351234
-0.0520708
-0.0714644
-0.0924529
-0.114079
-0.135436
-0.155784
-0.1746
-0.191574
-0.206569
-0.21956
-0.230587
-0.23972
-0.247038
-0.252606
-0.256467
-0.258674
-0.259337
-0.258482
-0.256139
-0.252327
-0.247046
-0.240257
-0.231882
-0.221793
-0.20982
-0.195791
-0.179613
-0.161404
-0.141673
-0.121464
-0.102352
-0.0861282
-0.0742098
-0.067019
-0.0637997
-0.0630804
-0.0634446
-0.0640393
-0.0645669
-0.0649041
-0.0650426
0.010299
0.00936331
0.00767059
0.00478949
5.20037e-05
-0.00722259
-0.0176724
-0.031661
-0.0491138
-0.0694877
-0.0918778
-0.115206
-0.138422
-0.16066
-0.181316
-0.200047
-0.216721
-0.231339
-0.243973
-0.254714
-0.263651
-0.270861
-0.276404
-0.280313
-0.282621
-0.28342
-0.282721
-0.280557
-0.276951
-0.271917
-0.265441
-0.257476
-0.247918
-0.236602
-0.223298
-0.207746
-0.189752
-0.169362
-0.147123
-0.124312
-0.102939
-0.0852919
-0.0730499
-0.0664444
-0.064167
-0.0642087
-0.0649512
-0.0656623
-0.0661394
-0.066353
0.0091226
0.00805609
0.00592164
0.0020984
-0.00423688
-0.0138122
-0.0271703
-0.0444238
-0.0651493
-0.0884495
-0.113149
-0.13804
-0.162092
-0.184575
-0.205079
-0.223453
-0.239714
-0.25396
-0.266308
-0.276862
-0.285702
-0.29289
-0.298468
-0.302454
-0.304866
-0.305779
-0.305191
-0.303132
-0.299627
-0.294695
-0.288346
-0.280565
-0.271299
-0.260441
-0.2478
-0.233101
-0.216005
-0.196221
-0.173737
-0.149175
-0.124135
-0.101166
-0.0830613
-0.0715715
-0.0663952
-0.0654195
-0.0661473
-0.0670499
-0.0676912
-0.0680051
0.00620104
0.00497144
0.00230381
-0.00260149
-0.0106795
-0.0226388
-0.0388466
-0.0591032
-0.0826219
-0.108194
-0.134461
-0.160194
-0.184482
-0.20679
-0.226908
-0.244849
-0.260731
-0.274697
-0.286871
-0.297343
-0.306171
-0.313397
-0.319044
-0.323121
-0.325634
-0.326645
-0.32615
-0.32417
-0.320726
-0.315836
-0.309516
-0.301772
-0.292594
-0.281935
-0.269689
-0.255653
-0.239511
-0.220847
-0.199271
-0.174734
-0.14802
-0.121195
-0.0974801
-0.0800985
-0.0704998
-0.0673864
-0.0677003
-0.0687906
-0.0696319
-0.0700882
0.00129896
-0.000124071
-0.00338747
-0.00944434
-0.0192893
-0.0335485
-0.0523547
-0.0751715
-0.100876
-0.128021
-0.155169
-0.181168
-0.205283
-0.22719
-0.246854
-0.2644
-0.279993
-0.293782
-0.305873
-0.31633
-0.325188
-0.33247
-0.33819
-0.342351
-0.344951
-0.346047
-0.345637
-0.343732
-0.340347
-0.335495
-0.32919
-0.321442
-0.312258
-0.301634
-0.289534
-0.27586
-0.260402
-0.242795
-0.222534
-0.199131
-0.172547
-0.143873
-0.115875
-0.092555
-0.0773008
-0.07063
-0.0697742
-0.0709498
-0.0720381
-0.0726927
-0.00563277
-0.00726986
-0.0111509
-0.0183494
-0.0298666
-0.0461971
-0.0672087
-0.0920398
-0.119288
-0.147358
-0.174825
-0.200678
-0.224387
-0.245812
-0.265046
-0.282273
-0.297666
-0.311354
-0.323412
-0.333878
-0.342769
-0.350097
-0.355874
-0.360098
-0.362766
-0.363931
-0.363597
-0.361767
-0.358451
-0.353657
-0.347392
-0.339662
-0.330474
-0.319839
-0.307762
-0.294222
-0.279129
-0.262258
-0.243184
-0.221286
-0.195981
-0.167339
-0.137022
-0.108795
-0.0874249
-0.0758202
-0.0726854
-0.0736297
-0.0750229
-0.0759243
-0.0144433
-0.0163008
-0.0207784
-0.0290353
-0.042033
-0.0601042
-0.0828507
-0.109125
-0.137318
-0.165771
-0.193143
-0.218598
-0.241796
-0.262742
-0.281607
-0.29859
-0.313846
-0.32747
-0.339508
-0.349978
-0.358884
-0.366237
-0.372046
-0.376312
-0.37903
-0.380249
-0.37998
-0.37822
-0.374978
-0.370258
-0.364061
-0.356388
-0.347242
-0.336628
-0.324562
-0.311061
-0.296122
-0.279661
-0.261421
-0.240879
-0.217269
-0.18994
-0.159287
-0.127961
-0.101027
-0.0835946
-0.0768895
-0.0769898
-0.0787093
-0.0798941
-0.024803
-0.0268717
-0.0318874
-0.0410639
-0.0552866
-0.0747169
-0.0987126
-0.125895
-0.154526
-0.182953
-0.209959
-0.234887
-0.257554
-0.278064
-0.296621
-0.313414
-0.328564
-0.342134
-0.354145
-0.3646
-0.373502
-0.380857
-0.386678
-0.390967
-0.393721
-0.39498
-0.394766
-0.393069
-0.389898
-0.385256
-0.379143
-0.371557
-0.362494
-0.351955
-0.339947
-0.326495
-0.311633
-0.295374
-0.277629
-0.258077
-0.236047
-0.210589
-0.181097
-0.148713
-0.117664
-0.0943257
-0.0828868
-0.0812584
-0.0832022
-0.0847142
-0.0362503
-0.038506
-0.0439748
-0.0539
-0.0690646
-0.0894677
-0.114261
-0.141899
-0.170576
-0.198696
-0.225185
-0.249541
-0.271702
-0.291828
-0.310129
-0.326763
-0.341819
-0.355329
-0.367297
-0.377721
-0.3866
-0.393941
-0.39976
-0.404062
-0.406839
-0.408128
-0.407959
-0.406316
-0.403208
-0.398641
-0.392614
-0.385125
-0.376171
-0.365746
-0.35385
-0.3405
-0.325732
-0.309602
-0.292136
-0.273217
-0.252407
-0.228809
-0.201288
-0.169599
-0.136374
-0.107957
-0.0911005
-0.0867255
-0.088592
-0.0905028
-0.048251
-0.050657
-0.0564793
-0.0669721
-0.0827997
-0.103821
-0.129028
-0.156765
-0.185213
-0.212861
-0.238768
-0.262562
-0.284263
-0.304057
-0.322137
-0.338629
-0.35359
-0.36703
-0.378943
-0.389322
-0.398167
-0.405487
-0.411296
-0.415602
-0.418397
-0.419707
-0.419574
-0.417976
-0.414923
-0.410422
-0.404474
-0.397081
-0.388241
-0.377948
-0.366199
-0.353
-0.338378
-0.322392
-0.305121
-0.286596
-0.266628
-0.244571
-0.219215
-0.189387
-0.155924
-0.123965
-0.101726
-0.0936676
-0.0949694
-0.0973702
-0.0602579
-0.0627669
-0.068839
-0.0797256
-0.0959638
-0.117302
-0.14262
-0.170201
-0.198251
-0.225349
-0.250672
-0.273946
-0.29524
-0.314745
-0.33263
-0.348989
-0.363852
-0.377215
-0.389065
-0.399394
-0.408202
-0.415497
-0.421293
-0.425599
-0.428407
-0.429731
-0.429627
-0.428065
-0.425058
-0.420613
-0.414734
-0.407427
-0.398692
-0.38853
-0.376939
-0.363921
-0.34949
-0.333694
-0.316622
-0.29838
-0.278975
-0.258068
-0.234671
-0.207233
-0.175089
-0.14146
-0.114617
-0.102273
-0.10244
-0.105372
-0.0717602
-0.0743212
-0.0805382
-0.0916624
-0.108097
-0.129513
-0.154721
-0.181984
-0.20955
-0.236086
-0.260863
-0.283675
-0.304617
-0.323871
-0.341581
-0.357813
-0.37258
-0.385865
-0.397651
-0.40793
-0.416703
-0.423975
-0.429758
-0.434063
-0.43688
-0.438213
-0.438132
-0.436599
-0.433627
-0.429226
-0.423404
-0.416168
-0.407525
-0.397481
-0.38604
-0.373205
-0.358987
-0.343422
-0.326584
-0.308606
-0.289611
-0.269526
-0.247713
-0.222693
-0.192855
-0.15936
-0.129266
-0.112556
-0.11106
-0.11445
-0.0823432
-0.0848615
-0.091141
-0.102365
-0.118823
-0.140138
-0.165087
-0.191944
-0.219006
-0.245013
-0.269307
-0.291724
-0.312366
-0.331404
-0.348958
-0.365074
-0.379749
-0.392961
-0.40469
-0.414927
-0.423671
-0.430924
-0.436697
-0.441
-0.443826
-0.445163
-0.4451
-0.443587
-0.440642
-0.436273
-0.430491
-0.423309
-0.414739
-0.404793
-0.393481
-0.380815
-0.366808
-0.351487
-0.334917
-0.317222
-0.298579
-0.279097
-0.258493
-0.235619
-0.208513
-0.176588
-0.144872
-0.124275
-0.120732
-0.124367
-0.0916928
-0.0940154
-0.100291
-0.11151
-0.127854
-0.148939
-0.17354
-0.199958
-0.226539
-0.252081
-0.275968
-0.298058
-0.318454
-0.33731
-0.354729
-0.370743
-0.385339
-0.39849
-0.410174
-0.42038
-0.429104
-0.436347
-0.442115
-0.446419
-0.449251
-0.450594
-0.450542
-0.449043
-0.446112
-0.441761
-0.436004
-0.428856
-0.420334
-0.410459
-0.399249
-0.386724
-0.372903
-0.357817
-0.341522
-0.32413
-0.30583
-0.286834
-0.267139
-0.246026
-0.221641
-0.192218
-0.160475
-0.136911
-0.131121
-0.134707
-0.0995628
-0.101557
-0.10772
-0.118858
-0.134989
-0.15575
-0.179953
-0.205938
-0.232092
-0.257247
-0.28081
-0.302643
-0.322844
-0.341554
-0.358863
-0.374794
-0.389328
-0.402435
-0.414091
-0.424282
-0.433
-0.440245
-0.446018
-0.450326
-0.453166
-0.45452
-0.454472
-0.452983
-0.450055
-0.445707
-0.439954
-0.432815
-0.424314
-0.414478
-0.403333
-0.39091
-0.377238
-0.362354
-0.346315
-0.329225
-0.311267
-0.292699
-0.27371
-0.253978
-0.232036
-0.205551
-0.175104
-0.149722
-0.14169
-0.144939
-0.105789
-0.107369
-0.113278
-0.124261
-0.140112
-0.160492
-0.184275
-0.209847
-0.235634
-0.260484
-0.283804
-0.305448
-0.325503
-0.344102
-0.361328
-0.3772
-0.391695
-0.404781
-0.41643
-0.426625
-0.435356
-0.442617
-0.448406
-0.452728
-0.455579
-0.456944
-0.456899
-0.455414
-0.45248
-0.44812
-0.442353
-0.435198
-0.426686
-0.41685
-0.405728
-0.393359
-0.379785
-0.365052
-0.349224
-0.332405
-0.314773
-0.2966
-0.278185
-0.259523
-0.239627
-0.216118
-0.187896
-0.161873
-0.151811
-0.154497
-0.110307
-0.111415
-0.116926
-0.12766
-0.143172
-0.163122
-0.186461
-0.211641
-0.23712
-0.261748
-0.284913
-0.306447
-0.326418
-0.34495
-0.362126
-0.377965
-0.392447
-0.405536
-0.417203
-0.427424
-0.436186
-0.443478
-0.449294
-0.453633
-0.456491
-0.457861
-0.457812
-0.45633
-0.453381
-0.448995
-0.443193
-0.435997
-0.427442
-0.417568
-0.406424
-0.394058
-0.380523
-0.365876
-0.350195
-0.333589
-0.316238
-0.298418
-0.280487
-0.262655
-0.244399
-0.223638
-0.198168
-0.172555
-0.160859
-0.162845
-0.113145
-0.113752
-0.11873
-0.129105
-0.144215
-0.163681
-0.186541
-0.211325
-0.236528
-0.260992
-0.284072
-0.305562
-0.325506
-0.344018
-0.361183
-0.377026
-0.391529
-0.404658
-0.416376
-0.426659
-0.435484
-0.44284
-0.448714
-0.453101
-0.455997
-0.457388
-0.457316
-0.455805
-0.452807
-0.448357
-0.442478
-0.435202
-0.426567
-0.416617
-0.405403
-0.392984
-0.379423
-0.364792
-0.34918
-0.332709
-0.315566
-0.298035
-0.280506
-0.263327
-0.246348
-0.227967
-0.205429
-0.18106
-0.168266
-0.169503
-0.114412
-0.11452
-0.118846
-0.128723
-0.143347
-0.162262
-0.18459
-0.208952
-0.233885
-0.258221
-0.28127
-0.302774
-0.322745
-0.341284
-0.358478
-0.37436
-0.388917
-0.402116
-0.413919
-0.424292
-0.433211
-0.440656
-0.44661
-0.451063
-0.454009
-0.455439
-0.455369
-0.453838
-0.450791
-0.446266
-0.440292
-0.432899
-0.424127
-0.414031
-0.402672
-0.390121
-0.376457
-0.361761
-0.346131
-0.329701
-0.312674
-0.295346
-0.278129
-0.261457
-0.245457
-0.229036
-0.209359
-0.186822
-0.173537
-0.174055
-0.114283
-0.113929
-0.117507
-0.126717
-0.140733
-0.159003
-0.180716
-0.204595
-0.22923
-0.253446
-0.276497
-0.298065
-0.318115
-0.33673
-0.353997
-0.369957
-0.384607
-0.397913
-0.409836
-0.420337
-0.429384
-0.436949
-0.443011
-0.447554
-0.450568
-0.452042
-0.451979
-0.450428
-0.447324
-0.442707
-0.436612
-0.429072
-0.42013
-0.409845
-0.398286
-0.385529
-0.371662
-0.356783
-0.341014
-0.324511
-0.30749
-0.290258
-0.27325
-0.256953
-0.241689
-0.226819
-0.209766
-0.189409
-0.176246
-0.176134
-0.112985
-0.11224
-0.115012
-0.12336
-0.136601
-0.154095
-0.17507
-0.198355
-0.222617
-0.246677
-0.269735
-0.291398
-0.311575
-0.330317
-0.347707
-0.363792
-0.378578
-0.392035
-0.404122
-0.414793
-0.424008
-0.431732
-0.437936
-0.442598
-0.445701
-0.447233
-0.447184
-0.445611
-0.442444
-0.43772
-0.431479
-0.423757
-0.4146
-0.40407
-0.392243
-0.379204
-0.365049
-0.34989
-0.333862
-0.317141
-0.299972
-0.2827
-0.26578
-0.249728
-0.234997
-0.221308
-0.206549
-0.188513
-0.176025
-0.175417
-0.110782
-0.109744
-0.111693
-0.118986
-0.131238
-0.147777
-0.167844
-0.190374
-0.214125
-0.23794
-0.260967
-0.282733
-0.303071
-0.321992
-0.339561
-0.355827
-0.370801
-0.38446
-0.39676
-0.407649
-0.417079
-0.425006
-0.431392
-0.436206
-0.439426
-0.441035
-0.441017
-0.439423
-0.436191
-0.431348
-0.424939
-0.417002
-0.407584
-0.396753
-0.384587
-0.37118
-0.356637
-0.341083
-0.324669
-0.307595
-0.290133
-0.272659
-0.255671
-0.239718
-0.225339
-0.212503
-0.19967
-0.183926
-0.172549
-0.171602
-0.107948
-0.10673
-0.107894
-0.113968
-0.124983
-0.140335
-0.159274
-0.180829
-0.20387
-0.227284
-0.250188
-0.272026
-0.292545
-0.311693
-0.329502
-0.346014
-0.361242
-0.375164
-0.387736
-0.398901
-0.4086
-0.41678
-0.423394
-0.428402
-0.431773
-0.433485
-0.43352
-0.43191
-0.428616
-0.423647
-0.41705
-0.408865
-0.399144
-0.387953
-0.375377
-0.361513
-0.346477
-0.330404
-0.313465
-0.295884
-0.277969
-0.260133
-0.24292
-0.226915
-0.212707
-0.200424
-0.189135
-0.175525
-0.165531
-0.164407
-0.10475
-0.103464
-0.103932
-0.108684
-0.118212
-0.132098
-0.149633
-0.169936
-0.191997
-0.214784
-0.237408
-0.259239
-0.279929
-0.299343
-0.31746
-0.334297
-0.349859
-0.364121
-0.377038
-0.388547
-0.39858
-0.407074
-0.41397
-0.41922
-0.422784
-0.424633
-0.424745
-0.423136
-0.419786
-0.414687
-0.407885
-0.399424
-0.389356
-0.377749
-0.364689
-0.350278
-0.334638
-0.317918
-0.300309
-0.282063
-0.263524
-0.245154
-0.227546
-0.211336
-0.197154
-0.185138
-0.174999
-0.163267
-0.15472
-0.153556
-0.101421
-0.100161
-0.100065
-0.103484
-0.111315
-0.123428
-0.13923
-0.157941
-0.178687
-0.200546
-0.222657
-0.244341
-0.265152
-0.284853
-0.303346
-0.320599
-0.336594
-0.351295
-0.36465
-0.376588
-0.387035
-0.395914
-0.403158
-0.408708
-0.412514
-0.414541
-0.41476
-0.413176
-0.40978
-0.404552
-0.397534
-0.388773
-0.378319
-0.36624
-0.352622
-0.337571
-0.321217
-0.30372
-0.285293
-0.26622
-0.246888
-0.227809
-0.209634
-0.193052
-0.17875
-0.166788
-0.157386
-0.147189
-0.139925
-0.138788
-0.0981452
-0.0969805
-0.0964802
-0.098659
-0.104666
-0.114708
-0.128404
-0.145126
-0.164153
-0.184707
-0.205996
-0.227321
-0.248148
-0.268126
-0.287054
-0.304825
-0.321373
-0.336636
-0.350546
-0.363023
-0.37398
-0.383333
-0.391003
-0.396922
-0.40103
-0.403284
-0.40365
-0.402119
-0.398697
-0.393346
-0.386106
-0.377024
-0.366149
-0.353545
-0.339299
-0.323518
-0.30634
-0.28794
-0.268553
-0.248497
-0.228207
-0.208253
-0.189345
-0.172228
-0.157623
-0.145576
-0.136489
-0.127409
-0.121041
-0.119869
-0.0950513
-0.0940215
-0.0932847
-0.0944069
-0.0985822
-0.106312
-0.117513
-0.131794
-0.148639
-0.167442
-0.187524
-0.208203
-0.228877
-0.249078
-0.26848
-0.28687
-0.304106
-0.320079
-0.33469
-0.34784
-0.359432
-0.369368
-0.37756
-0.383929
-0.38841
-0.390951
-0.391512
-0.390073
-0.386648
-0.381187
-0.373725
-0.364307
-0.35298
-0.339805
-0.324866
-0.308275
-0.290174
-0.270754
-0.250276
-0.229096
-0.207701
-0.186722
-0.16693
-0.149117
-0.134033
-0.121732
-0.112566
-0.104105
-0.0980533
-0.0965596
-0.0922169
-0.0913404
-0.0905187
-0.0908271
-0.0932874
-0.0985638
-0.106905
-0.118264
-0.132411
-0.148962
-0.16739
-0.187069
-0.207354
-0.227667
-0.247545
-0.26664
-0.284705
-0.301553
-0.317036
-0.331025
-0.3434
-0.354052
-0.362882
-0.369803
-0.374742
-0.377641
-0.378455
-0.377156
-0.373756
-0.368208
-0.360532
-0.350771
-0.33897
-0.325187
-0.309505
-0.292036
-0.27293
-0.252396
-0.230722
-0.208306
-0.185687
-0.163557
-0.142748
-0.124089
-0.108346
-0.0955382
-0.0859648
-0.077499
-0.0710084
-0.0685148
-0.0896741
-0.0889595
-0.0881747
-0.0879245
-0.0888821
-0.0916847
-0.096876
-0.104841
-0.115747
-0.12951
-0.145799
-0.164074
-0.183678
-0.203937
-0.224243
-0.244098
-0.263117
-0.281009
-0.297551
-0.312563
-0.325896
-0.337421
-0.347028
-0.35462
-0.360118
-0.363459
-0.364596
-0.363495
-0.36016
-0.354555
-0.346683
-0.336585
-0.324303
-0.309893
-0.293437
-0.275049
-0.254889
-0.233183
-0.210248
-0.186524
-0.162602
-0.139231
-0.11729
-0.0976349
-0.0810266
-0.0674033
-0.0571088
-0.0478518
-0.0401055
-0.0353322
-0.0874146
-0.0868749
-0.0862164
-0.0856287
-0.0853279
-0.0857411
-0.0876032
-0.0917705
-0.0989195
-0.109364
-0.123021
-0.139473
-0.158072
-0.178063
-0.198701
-0.219323
-0.239387
-0.258472
-0.276252
-0.292479
-0.306958
-0.31953
-0.330069
-0.338467
-0.344641
-0.348524
-0.350065
-0.34923
-0.346013
-0.340394
-0.33236
-0.321947
-0.309199
-0.294171
-0.276944
-0.257637
-0.23642
-0.213538
-0.189335
-0.16429
-0.139037
-0.114368
-0.09119
-0.0703669
-0.0526323
-0.0378467
-0.0264589
-0.0154857
-0.0059792
0.00305052
-0.0853821
-0.0850472
-0.0845844
-0.0838086
-0.0824469
-0.0806038
-0.0790842
-0.0791865
-0.0821653
-0.0888265
-0.0994075
-0.113646
-0.130921
-0.150412
-0.171242
-0.192587
-0.213736
-0.234118
-0.253286
-0.2709
-0.286703
-0.300496
-0.312126
-0.321476
-0.328453
-0.332986
-0.335026
-0.334537
-0.331507
-0.325932
-0.317789
-0.307111
-0.293943
-0.278344
-0.260397
-0.240226
-0.218015
-0.194024
-0.168622
-0.142312
-0.115756
-0.0897603
-0.0652257
-0.0429917
-0.023746
-0.00730721
0.00575888
0.019509
0.0305337
0.0464499
-0.0834565
-0.0833811
-0.0831712
-0.0822616
-0.0799229
-0.0759353
-0.0710939
-0.0670574
-0.0656516
-0.0682295
-0.0754111
-0.0871304
-0.102814
-0.121588
-0.142454
-0.164432
-0.186647
-0.208368
-0.229015
-0.24814
-0.265409
-0.28057
-0.293438
-0.303875
-0.311778
-0.317076
-0.319715
-0.319663
-0.316905
-0.31145
-0.303277
-0.292415
-0.278915
-0.262841
-0.244283
-0.223375
-0.200311
-0.175364
-0.148915
-0.121475
-0.0936975
-0.0663603
-0.0403087
-0.0163035
0.00505593
0.0240088
0.0399574
0.0579427
0.0703842
0.0969578
-0.0814457
-0.0816951
-0.0817703
-0.0806712
-0.0772986
-0.0712166
-0.0632043
-0.055184
-0.0494665
-0.0479299
-0.051603
-0.0606523
-0.0745794
-0.0924715
-0.113227
-0.135724
-0.15893
-0.181962
-0.204102
-0.22479
-0.243603
-0.260227
-0.274436
-0.286065
-0.295
-0.301162
-0.304499
-0.304981
-0.302593
-0.297349
-0.28925
-0.278322
-0.264621
-0.248224
-0.229231
-0.207786
-0.184091
-0.158425
-0.131162
-0.102789
-0.0739054
-0.0452044
-0.0174108
0.00886163
0.0331792
0.0559685
0.0768355
0.101617
0.118713
0.161896
-0.0791395
-0.0797414
-0.0800974
-0.0786442
-0.0740386
-0.0658393
-0.054895
-0.0432903
-0.0336716
-0.0283382
-0.0286937
-0.0351493
-0.0473071
-0.0642439
-0.084778
-0.107669
-0.131748
-0.155992
-0.179555
-0.201767
-0.222115
-0.240219
-0.255804
-0.268677
-0.278705
-0.285803
-0.289916
-0.291019
-0.289103
-0.284179
-0.276275
-0.265424
-0.251696
-0.23518
-0.215987
-0.194268
-0.170229
-0.144138
-0.116337
-0.087248
-0.0573663
-0.0272301
0.00263235
0.0318378
0.0602062
0.0884849
0.116679
0.151881
0.181744
0.246582
-0.0766454
-0.0774846
-0.0779655
-0.0759031
-0.0698477
-0.0594366
-0.0458147
-0.0312297
-0.0184368
-0.00997848
-0.00754152
-0.0117492
-0.0223158
-0.0383394
-0.0585961
-0.0817619
-0.106561
-0.131857
-0.156693
-0.180297
-0.202077
-0.221584
-0.238498
-0.252591
-0.263713
-0.271768
-0.2767
-0.278488
-0.277131
-0.272646
-0.26507
-0.254448
-0.240871
-0.224452
-0.205311
-0.183598
-0.159505
-0.133273
-0.105183
-0.0755566
-0.0447275
-0.0130051
0.0193881
0.0524494
0.0864252
0.122507
0.161011
0.2107
0.258287
0.336998
-0.0752473
-0.0759317
-0.0760367
-0.0727924
-0.0649078
-0.0522779
-0.0362538
-0.019341
-0.00430275
0.00637714
0.0108206
0.00826194
-0.00108939
-0.0163693
-0.0363556
-0.0596866
-0.0850211
-0.111142
-0.13701
-0.161775
-0.184774
-0.205503
-0.223595
-0.238794
-0.250929
-0.259893
-0.265628
-0.268116
-0.267363
-0.263403
-0.256287
-0.246059
-0.232797
-0.216637
-0.197725
-0.176211
-0.152264
-0.126073
-0.0978441
-0.0677668
-0.0359746
-0.00246765
0.0329911
0.0710729
0.112949
0.160955
0.216164
0.287347
0.347823
0.422916
-0.0794388
-0.0787199
-0.077082
-0.0714523
-0.0609056
-0.0456972
-0.0274357
-0.00871753
0.00769289
0.0195994
0.025254
0.0236749
0.0150582
0.000245823
-0.0195639
-0.0430072
-0.0687148
-0.0954259
-0.122049
-0.147681
-0.171607
-0.193282
-0.212303
-0.228389
-0.241351
-0.251073
-0.257494
-0.260597
-0.260394
-0.256924
-0.250249
-0.240453
-0.227613
-0.211803
-0.193171
-0.171887
-0.148109
-0.121982
-0.0936282
-0.0631022
-0.0303119
0.00511427
0.0440314
0.0881599
0.140426
0.206062
0.289878
0.401907
0.49433
0.602048
-0.102858
-0.0950078
-0.0865304
-0.0757265
-0.0613715
-0.0430804
-0.0225004
-0.00220159
0.0153837
0.0280573
0.0341506
0.0329912
0.0247786
0.0103067
-0.00927131
-0.0326252
-0.0584012
-0.0853338
-0.112312
-0.138405
-0.162865
-0.185118
-0.204733
-0.221408
-0.234937
-0.245195
-0.252115
-0.255675
-0.255891
-0.252802
-0.246473
-0.236985
-0.224432
-0.20892
-0.190568
-0.169504
-0.145871
-0.119786
-0.0913028
-0.0603521
-0.0266239
0.0106325
0.0529392
0.103225
0.16663
0.252664
0.374022
0.55424
0.766429
1.10679
-0.189663
-0.111878
-0.0802621
-0.0710217
-0.0577571
-0.0384316
-0.0168181
0.00407967
0.0217679
0.0340896
0.0396573
0.0379998
0.0293967
0.0146703
-0.00503369
-0.0284215
-0.0541845
-0.0810962
-0.108071
-0.134194
-0.158722
-0.181077
-0.200826
-0.217656
-0.231358
-0.241797
-0.248904
-0.252654
-0.253058
-0.250156
-0.244012
-0.234706
-0.222333
-0.206997
-0.188814
-0.167905
-0.144397
-0.118379
-0.0898482
-0.0586378
-0.0242735
0.0142763
0.0590122
0.113686
0.184871
0.284927
0.433765
0.679026
1.07829
1.82768
)
;

boundaryField
{
    movingWall
    {
        type            zeroGradient;
    }
    fixedWalls
    {
        type            zeroGradient;
    }
    frontAndBack
    {
        type            empty;
    }
}


// ************************************************************************* //
