/*--------------------------------*- C++ -*----------------------------------*\
  =========                 |
  \\      /  F ield         | OpenFOAM: The Open Source CFD Toolbox
   \\    /   O peration     | Website:  https://openfoam.org
    \\  /    A nd           | Version:  7
     \\/     M anipulation  |
\*---------------------------------------------------------------------------*/
FoamFile
{
    version     2.0;
    format      ascii;
    class       surfaceScalarField;
    location    "350";
    object      phi;
}
// * * * * * * * * * * * * * * * * * * * * * * * * * * * * * * * * * * * * * //

dimensions      [0 3 -1 0 0 0 0];

internalField   nonuniform List<scalar> 
4900
(
1.69963e-06
-1.71297e-06
6.23394e-06
-4.53376e-06
1.17301e-05
-5.49848e-06
1.65155e-05
-4.78826e-06
1.97598e-05
-3.24682e-06
2.13947e-05
-1.63693e-06
2.17687e-05
-3.75623e-07
2.12576e-05
5.09555e-07
2.00032e-05
1.25302e-06
1.78392e-05
2.16261e-06
1.43707e-05
3.4672e-06
9.1092e-06
5.26026e-06
1.56195e-06
7.54608e-06
-8.72481e-06
1.02857e-05
-2.21021e-05
1.33763e-05
-3.87339e-05
1.66309e-05
-5.85254e-05
1.97907e-05
-8.10415e-05
2.25154e-05
-0.000105444
2.44014e-05
-0.000130474
2.50294e-05
-0.000154502
2.4028e-05
-0.00017564
2.11373e-05
-0.000191901
1.62609e-05
-0.000201406
9.5042e-06
-0.000202625
1.21868e-06
-0.000194608
-8.01711e-06
-0.000177101
-1.75073e-05
-0.000150617
-2.64852e-05
-0.000116439
-3.41779e-05
-7.65875e-05
-3.98519e-05
-3.37087e-05
-4.28792e-05
9.08419e-06
-4.27932e-05
4.85265e-05
-3.94427e-05
8.17512e-05
-3.32251e-05
0.000106568
-2.48173e-05
0.000121694
-1.51264e-05
0.000126995
-5.30133e-06
0.000123535
3.4601e-06
0.000113301
1.02329e-05
9.86859e-05
1.46153e-05
8.20361e-05
1.66494e-05
6.52985e-05
1.67374e-05
4.98283e-05
1.54699e-05
3.63684e-05
1.34597e-05
2.51527e-05
1.12154e-05
1.60778e-05
9.07464e-06
8.91917e-06
7.1583e-06
3.60871e-06
5.31015e-06
5.10023e-07
3.0984e-06
5.09962e-07
4.48015e-06
-6.1911e-06
1.38616e-05
-1.39184e-05
2.4324e-05
-1.59671e-05
3.29045e-05
-1.33753e-05
3.79928e-05
-8.34076e-06
3.91998e-05
-2.84885e-06
3.68075e-05
2.0125e-06
3.11201e-05
6.1931e-06
2.20254e-05
1.03441e-05
8.89031e-06
1.52942e-05
-9.28718e-06
2.16414e-05
-3.36115e-05
2.95815e-05
-6.49841e-05
3.8916e-05
-0.000103844
4.91435e-05
-0.00014996
5.94896e-05
-0.000202264
6.89337e-05
-0.000258804
7.63285e-05
-0.00031686
8.057e-05
-0.000373228
8.07681e-05
-0.000424567
7.63675e-05
-0.000467736
6.71965e-05
-0.000500056
5.34559e-05
-0.00051947
3.56743e-05
-0.000524636
1.46691e-05
-0.000515006
-8.41226e-06
-0.000490672
-3.23516e-05
-0.000452268
-5.59119e-05
-0.000400991
-7.77635e-05
-0.000338661
-9.65087e-05
-0.000267744
-0.000110769
-0.000191327
-0.000119297
-0.000112982
-0.000121139
-3.65901e-05
-0.000115836
3.37743e-05
-0.00010359
9.44021e-05
-8.54459e-05
0.000142466
-6.31914e-05
0.000176031
-3.88667e-05
0.000194291
-1.48011e-05
0.00019782
6.70335e-06
0.000188697
2.37377e-05
0.00017006
3.52853e-05
0.000145501
4.12964e-05
0.000118433
4.25372e-05
9.16322e-05
4.02596e-05
6.69774e-05
3.58695e-05
4.54659e-05
3.05854e-05
2.7496e-05
2.51275e-05
1.33575e-05
1.94479e-05
3.76381e-06
1.26914e-05
4.27369e-06
5.99285e-06
-1.21841e-05
1.73437e-05
-2.5271e-05
2.87977e-05
-2.74253e-05
3.67961e-05
-2.13788e-05
3.94787e-05
-1.10284e-05
3.62573e-05
3.68032e-07
2.70666e-05
1.1199e-05
1.16942e-05
2.15616e-05
-1.06318e-05
3.26666e-05
-4.11947e-05
4.58539e-05
-8.13564e-05
6.18003e-05
-0.000132038
8.02611e-05
-0.000193299
0.000100174
-0.000264021
0.000119864
-0.000341845
0.000137311
-0.000423398
0.000150486
-0.000504754
0.000157683
-0.000581954
0.000157769
-0.000651453
0.000150266
-0.000710392
0.000135306
-0.000756695
0.000113498
-0.000789014
8.57742e-05
-0.000806594
5.32537e-05
-0.000809091
1.7165e-05
-0.000796375
-2.11283e-05
-0.000768463
-6.0264e-05
-0.000725662
-9.87141e-05
-0.000668696
-0.000134729
-0.000598796
-0.000166409
-0.000517796
-0.000191769
-0.000428207
-0.000208887
-0.000333216
-0.00021613
-0.000236604
-0.000212449
-0.000142505
-0.000197689
-5.5152e-05
-0.0001728
2.14793e-05
-0.000139823
8.43961e-05
-0.000101784
0.000131799
-6.22044e-05
0.000162713
-2.42121e-05
0.000177271
9.17897e-06
0.000176994
3.55619e-05
0.000164672
5.36177e-05
0.000143849
6.33602e-05
0.000118206
6.59019e-05
9.10098e-05
6.30648e-05
6.4744e-05
5.68505e-05
4.1077e-05
4.87937e-05
2.12189e-05
3.93053e-05
6.61227e-06
2.72974e-05
1.08859e-05
6.51019e-06
-1.86935e-05
1.75873e-05
-3.63497e-05
2.6915e-05
-3.67564e-05
3.06795e-05
-2.51476e-05
2.70765e-05
-7.42984e-06
1.54109e-05
1.20292e-05
-4.85779e-06
3.14638e-05
-3.47514e-05
5.14517e-05
-7.57982e-05
7.37106e-05
-0.000129475
9.95277e-05
-0.000196502
0.000128826
-0.000276285
0.000160042
-0.000366675
0.000190563
-0.000464165
0.000217353
-0.000564425
0.00023757
-0.000662998
0.000249058
-0.000755909
0.000250594
-0.000840029
0.000241888
-0.00091316
0.000223396
-0.000973915
0.000196061
-0.00102148
0.000161066
-0.00105539
0.000119678
-0.00107529
7.31562e-05
-0.00108088
2.27536e-05
-0.00107177
-3.02389e-05
-0.00104765
-8.43818e-05
-0.00100837
-0.000137996
-0.000953987
-0.000189114
-0.000884902
-0.000235494
-0.000802035
-0.000274637
-0.000706999
-0.000303923
-0.000602268
-0.000320861
-0.000491248
-0.00032347
-0.000378201
-0.000310737
-0.000267959
-0.000283043
-0.000165382
-0.0002424
-7.48002e-05
-0.000192367
4.91593e-07
-0.000137497
5.89002e-05
-8.26214e-05
0.00010012
-3.20416e-05
0.000124405
1.12758e-05
0.000133035
4.49873e-05
0.000128505
6.78901e-05
0.000114104
8.0302e-05
9.34138e-05
8.37543e-05
6.97992e-05
8.04644e-05
4.60832e-05
7.25092e-05
2.46237e-05
6.07641e-05
7.92526e-06
4.39952e-05
1.88111e-05
6.1989e-06
-2.48929e-05
1.48607e-05
-4.50134e-05
1.91227e-05
-4.10213e-05
1.53273e-05
-2.1356e-05
1.92889e-06
5.96454e-06
-2.19614e-05
3.59158e-05
-5.75275e-05
6.70267e-05
-0.0001065
0.000100421
-0.000170498
0.000137707
-0.00025007
0.000179098
-0.000344007
0.000222761
-0.000449264
0.000265298
-0.000561436
0.000302734
-0.000675565
0.000331481
-0.000786971
0.000348976
-0.000891845
0.00035393
-0.000987472
0.000346221
-0.00107216
0.000326574
-0.00114497
0.000296207
-0.00120544
0.000256531
-0.00125334
0.00020897
-0.00128854
0.000154876
-0.00131091
9.55222e-05
-0.00132029
3.21282e-05
-0.0013164
-3.41245e-05
-0.00129889
-0.00010189
-0.00126728
-0.000169612
-0.00122098
-0.000235412
-0.00115946
-0.000297015
-0.00108241
-0.000351685
-0.000990057
-0.000396277
-0.000883481
-0.000427437
-0.000764954
-0.000441997
-0.000638152
-0.00043754
-0.000508122
-0.000413072
-0.000380889
-0.000369634
-0.000262662
-0.000310595
-0.00015876
-0.000241399
-7.27343e-05
-0.000168647
-6.05125e-06
-9.87254e-05
4.18195e-05
-3.65957e-05
7.2128e-05
1.4678e-05
8.64749e-05
5.35425e-05
8.73806e-05
7.93957e-05
7.80487e-05
9.30855e-05
6.1989e-05
9.65235e-05
4.26636e-05
9.18339e-05
2.33711e-05
8.0056e-05
7.59154e-06
5.97742e-05
2.64025e-05
4.88048e-06
-2.97737e-05
8.81229e-06
-4.89474e-05
5.14985e-06
-3.73618e-05
-9.15145e-06
-7.05812e-06
-3.54377e-05
3.22475e-05
-7.48764e-05
7.53516e-05
-0.00012919
0.000121338
-0.000200119
0.000171349
-0.000288203
0.000225788
-0.000391886
0.00028278
-0.000507491
0.000338365
-0.000629932
0.000387737
-0.000753746
0.000426547
-0.000874029
0.000451763
-0.000986993
0.000461939
-0.0010901
0.000457038
-0.00118189
0.000438013
-0.00126169
0.000406372
-0.00132932
0.000363838
-0.00138493
0.00031214
-0.00142886
0.000252892
-0.00146152
0.000187542
-0.00148336
0.000117359
-0.00149469
4.34584e-05
-0.00149562
-3.31982e-05
-0.00148591
-0.000111602
-0.00146493
-0.000190585
-0.00143165
-0.000268692
-0.00138467
-0.000343998
-0.00132241
-0.000413948
-0.00124341
-0.000475282
-0.00114674
-0.0005241
-0.0010326
-0.000556141
-0.000902814
-0.000567326
-0.000761319
-0.000554567
-0.000614221
-0.000516733
-0.000469289
-0.000455526
-0.000334788
-0.000375901
-0.000217806
-0.00028563
-0.000122686
-0.000193845
-5.04202e-05
-0.000108862
6.08724e-07
-3.63516e-05
3.3006e-05
2.11446e-05
4.93261e-05
6.30748e-05
5.25247e-05
8.98864e-05
4.60124e-05
0.000103035
3.34906e-05
0.000104355
1.88206e-05
9.47255e-05
6.09692e-06
7.24973e-05
3.24994e-05
2.24194e-06
-3.20167e-05
-1.01996e-06
-4.56879e-05
-1.52035e-05
-2.3181e-05
-4.24944e-05
2.023e-05
-8.40779e-05
7.38284e-05
-0.000141391
0.000132662
-0.000216125
0.00019607
-0.000308937
0.00026416
-0.000418257
0.000335107
-0.000540105
0.000404626
-0.000668908
0.000467167
-0.000798722
0.000517551
-0.000924284
0.000552108
-0.00104159
0.000569071
-0.00114802
0.000568367
-0.00124212
0.000551137
-0.00132334
0.000519232
-0.00139178
0.000474813
-0.00144803
0.000420086
-0.00149301
0.000357121
-0.00152786
0.000287736
-0.00155374
0.000213422
-0.00157172
0.000135338
-0.00158262
5.43585e-05
-0.00158693
-2.88885e-05
-0.00158466
-0.000113873
-0.00157527
-0.000199966
-0.00155761
-0.000286358
-0.00152982
-0.000371784
-0.00148947
-0.000454299
-0.00143368
-0.000531076
-0.0013595
-0.000598278
-0.00126453
-0.00065111
-0.0011477
-0.000684158
-0.00101016
-0.000692104
-0.000856058
-0.000670838
-0.00069276
-0.000618824
-0.000530292
-0.000538369
-0.000379672
-0.000436251
-0.000250405
-0.000323112
-0.000148017
-0.000211251
-7.30122e-05
-0.000111357
-2.21151e-05
-2.97532e-05
8.99757e-06
3.19616e-05
2.41898e-05
7.46935e-05
2.72448e-05
9.99796e-05
2.21183e-05
0.000109481
1.29883e-05
0.000103855
4.19453e-06
8.12907e-05
3.66939e-05
-1.96566e-06
-3.00518e-05
-1.47942e-05
-3.28619e-05
-4.15716e-05
3.59384e-06
-8.35816e-05
6.22378e-05
-0.000141836
0.000132081
-0.000217727
0.000208551
-0.000312016
0.000290357
-0.000423384
0.000375527
-0.000547905
0.000459626
-0.000679746
0.000536466
-0.000812509
0.00059993
-0.000940443
0.000645483
-0.00105912
0.000670787
-0.00116562
0.000675565
-0.00125833
0.000661082
-0.00133676
0.000629566
-0.00140126
0.000583728
-0.00145285
0.000526403
-0.00149304
0.000460276
-0.00152361
0.000387689
-0.00154639
0.000310514
-0.00156308
0.000230119
-0.00157515
0.000147406
-0.0015837
6.29018e-05
-0.00158944
-2.31412e-05
-0.00159266
-0.000110655
-0.0015931
-0.000199534
-0.00158984
-0.000289619
-0.00158121
-0.000380407
-0.00156468
-0.000470831
-0.00153679
-0.000558972
-0.0014933
-0.000641767
-0.00142963
-0.000714775
-0.00134163
-0.000772163
-0.00122665
-0.000807079
-0.00108493
-0.000812561
-0.00092071
-0.000783044
-0.000742813
-0.000716265
-0.000563954
-0.00061511
-0.0003985
-0.000488567
-0.000258869
-0.000350883
-0.000151884
-0.000218342
-7.72472e-05
-0.00010439
-2.95278e-05
-1.57583e-05
-2.3001e-06
4.74651e-05
9.81216e-06
8.78667e-05
1.16272e-05
0.000107665
7.7385e-06
0.000107743
2.58491e-06
8.64437e-05
3.92787e-05
-7.80645e-06
-2.22466e-05
-3.20631e-05
-8.60773e-06
-7.27711e-05
4.42997e-05
-0.000130179
0.000119644
-0.000205104
0.000207004
-0.000298257
0.000301703
-0.000408712
0.000400811
-0.000532925
0.000499739
-0.000665093
0.000591794
-0.000798474
0.000669846
-0.000926764
0.000728219
-0.00104497
0.000763688
-0.0011497
0.000775521
-0.00123912
0.000764977
-0.00131268
0.000734645
-0.00137097
0.00068786
-0.00141545
0.000628201
-0.00144814
0.000559098
-0.00147139
0.000483526
-0.00148754
0.000403831
-0.0014987
0.000321674
-0.00150667
0.000238092
-0.00151288
0.000153616
-0.00151838
6.84065e-05
-0.00152391
-1.76111e-05
-0.00152989
-0.000104685
-0.00153635
-0.000193066
-0.00154294
-0.000283034
-0.00154864
-0.000374703
-0.00155161
-0.000467861
-0.00154889
-0.000561699
-0.00153622
-0.000654434
-0.00150813
-0.000742865
-0.00145833
-0.000821965
-0.00138068
-0.000884725
-0.00127072
-0.000922526
-0.00112748
-0.000926282
-0.000955271
-0.000888474
-0.000764555
-0.000805826
-0.000571178
-0.000681944
-0.000393345
-0.000528716
-0.00024661
-0.000365076
-0.000138772
-0.000212229
-6.79936e-05
-8.65372e-05
-2.61085e-05
5.57945e-06
-4.45807e-06
6.62158e-05
3.77964e-06
9.94272e-05
4.23749e-06
0.000107284
1.70224e-06
8.89786e-05
4.09809e-05
-1.50034e-05
-7.24393e-06
-5.18366e-05
2.82232e-05
-0.000106755
9.92168e-05
-0.000179075
0.000191962
-0.000269132
0.00029706
-0.000376356
0.000408926
-0.000497843
0.000522298
-0.000628166
0.000630062
-0.000760458
0.000724085
-0.000887906
0.000797294
-0.00100487
0.000845185
-0.0011074
0.000866212
-0.00119326
0.000861387
-0.00126185
0.000833566
-0.00131393
0.000786718
-0.00135132
0.000725257
-0.0013766
0.000653472
-0.00139258
0.000575077
-0.00140201
0.000492955
-0.00140727
0.000409091
-0.00141026
0.000324666
-0.0014124
0.000240239
-0.00141473
0.000155937
-0.00141794
7.16206e-05
-0.00142256
-1.29929e-05
-0.00142897
-9.82709e-05
-0.00143745
-0.000184586
-0.00144813
-0.000272355
-0.00146085
-0.000361992
-0.00147486
-0.000453848
-0.00148852
-0.000548038
-0.00149882
-0.000644136
-0.00150102
-0.000740666
-0.00148854
-0.000834444
-0.00145337
-0.000919899
-0.00138721
-0.000988683
-0.00128349
-0.00103
-0.00113989
-0.00103207
-0.000960832
-0.000984888
-0.000758764
-0.000884012
-0.000553213
-0.000734267
-0.000366622
-0.000551667
-0.000217489
-0.000361362
-0.000113608
-0.000190419
-5.03875e-05
-5.76414e-05
-1.64727e-05
3.23005e-05
-1.36968e-06
8.43237e-05
2.71082e-06
0.000103204
1.63855e-06
9.00503e-05
4.26194e-05
-2.30543e-05
1.58094e-05
-7.25966e-05
7.77639e-05
-0.000140924
0.000167543
-0.000226507
0.000277545
-0.0003288
0.000399352
-0.000445643
0.000525768
-0.000572338
0.000648992
-0.000702233
0.000759956
-0.000828176
0.000850027
-0.000943881
0.000912999
-0.00104472
0.000946025
-0.00112799
0.00094948
-0.00119285
0.000926251
-0.00124016
0.000880867
-0.00127206
0.000818622
-0.00129158
0.000744779
-0.00130203
0.000663923
-0.00130653
0.000579572
-0.00130765
0.000494077
-0.00130732
0.000408759
-0.00130682
0.000324164
-0.00130693
0.000240348
-0.0013081
0.000157105
-0.00131059
7.41113e-05
-0.00131461
-8.9749e-06
-0.00132039
-9.24828e-05
-0.00132826
-0.000176716
-0.00133863
-0.000261994
-0.0013519
-0.000348718
-0.00136835
-0.000437393
-0.00138779
-0.000528601
-0.00140907
-0.000622861
-0.00142946
-0.000720276
-0.00144403
-0.000819874
-0.00144527
-0.000918659
-0.00142341
-0.00101054
-0.00136784
-0.00108558
-0.00126964
-0.00113026
-0.00112511
-0.00112942
-0.000939071
-0.00107005
-0.000726634
-0.000946705
-0.000511745
-0.000766556
-0.000321343
-0.000551764
-0.000176043
-0.00033572
-8.18057e-05
-0.000151879
-2.97524e-05
-1.97533e-05
-5.47554e-06
6.00464e-05
2.45418e-06
9.52732e-05
2.17095e-06
9.03332e-05
4.47903e-05
-3.12133e-05
4.70222e-05
-9.2528e-05
0.000139077
-0.000172539
0.000247553
-0.000268753
0.000373759
-0.000379485
0.000510083
-0.00050102
0.000647302
-0.000627344
0.000775315
-0.000751279
0.000883892
-0.000866003
0.00096475
-0.00096616
0.00101316
-0.0010484
0.00102827
-0.0011115
0.00101258
-0.0011562
0.000970949
-0.00118485
0.000909518
-0.00120085
0.000834621
-0.00120795
0.000751881
-0.00120964
0.000665615
-0.00120872
0.000578649
-0.00120713
0.000492482
-0.001206
0.000407638
-0.00120589
0.000324053
-0.00120694
0.000241396
-0.00120911
0.000159269
-0.0012123
7.73076e-05
-0.00121649
-4.78365e-06
-0.00122176
-8.72199e-05
-0.00122832
-0.000170158
-0.00123657
-0.000253741
-0.0012471
-0.000338183
-0.00126066
-0.00042384
-0.00127798
-0.000511281
-0.00129951
-0.000601328
-0.00132482
-0.000694965
-0.00135174
-0.000792957
-0.00137537
-0.000895022
-0.00138742
-0.000998496
-0.00137629
-0.0010967
-0.00132885
-0.00117771
-0.00123374
-0.00122452
-0.00108606
-0.00121773
-0.000891755
-0.00114101
-0.000669713
-0.000988599
-0.000449253
-0.000772224
-0.000261702
-0.000523272
-0.000127929
-0.000285652
-4.92896e-05
-9.83929e-05
-1.13682e-05
2.21246e-05
2.11062e-06
8.17941e-05
2.86642e-06
8.95768e-05
4.76566e-05
-3.86058e-05
8.56274e-05
-0.000109905
0.000210375
-0.000199122
0.000336769
-0.000302688
0.000477325
-0.000417719
0.000625114
-0.000539234
0.000768816
-0.000660482
0.000896563
-0.000774361
0.00099777
-0.000874817
0.00106521
-0.000957719
0.00109606
-0.00102121
0.00109176
-0.00106568
0.00105705
-0.00109345
0.000998719
-0.00110814
0.000924204
-0.00111387
0.000840352
-0.00111451
0.000752515
-0.00111309
0.000664197
-0.00111164
0.000577197
-0.00111121
0.000492059
-0.00111217
0.000408595
-0.00111443
0.000326316
-0.00111774
0.000244701
-0.00112179
0.000163325
-0.00112637
8.18832e-05
-0.00113134
1.81932e-07
-0.00113667
-8.18852e-05
-0.00114248
-0.000164353
-0.00114899
-0.000247226
-0.00115664
-0.000330535
-0.00116609
-0.000414392
-0.00117828
-0.000499089
-0.00119437
-0.000585235
-0.00121546
-0.000673878
-0.00124192
-0.000766499
-0.0012723
-0.000864638
-0.00130194
-0.000968863
-0.00132173
-0.00107691
-0.00131814
-0.00118129
-0.00127528
-0.00126738
-0.00117938
-0.00131363
-0.00102497
-0.00129543
-0.000820422
-0.00119314
-0.000590068
-0.00100258
-0.000369588
-0.000743752
-0.000193696
-0.000461544
-8.00883e-05
-0.000212001
-2.20459e-05
-3.5918e-05
1.87596e-07
5.956e-05
3.252e-06
8.65122e-05
5.09086e-05
-4.44671e-05
0.000130094
-0.000123304
0.000289212
-0.000218768
0.000432232
-0.000326153
0.00058471
-0.000441496
0.000740456
-0.000558973
0.000886292
-0.000671638
0.00100923
-0.000772922
0.00109905
-0.00085785
0.00115013
-0.00092371
0.00116192
-0.000970237
0.00113829
-0.000999398
0.00108621
-0.0010148
0.00101412
-0.00102081
0.000930213
-0.00102164
0.000841182
-0.00102064
0.000751516
-0.00101998
0.000663543
-0.00102074
0.000577949
-0.00102313
0.000494456
-0.00102695
0.000412411
-0.00103178
0.000331146
-0.00103723
0.00025015
-0.00104299
0.000169086
-0.00104887
8.77597e-05
-0.00105476
6.07178e-06
-0.00106063
-7.60146e-05
-0.0010665
-0.000158476
-0.00107246
-0.00024127
-0.00107867
-0.00032433
-0.00108546
-0.000407599
-0.00109346
-0.00049109
-0.00110368
-0.000575013
-0.00111758
-0.000659977
-0.00113685
-0.000747231
-0.00116271
-0.000838781
-0.00119452
-0.00093705
-0.00122785
-0.00104358
-0.00125267
-0.00115647
-0.00125317
-0.00126689
-0.00121046
-0.00135634
-0.00110867
-0.00139722
-0.000942989
-0.00135882
-0.000726407
-0.00121916
-0.000490805
-0.000979353
-0.000278707
-0.000673642
-0.000125331
-0.000365377
-3.97538e-05
-0.000121495
-4.45818e-06
2.42643e-05
3.00474e-06
7.90487e-05
5.39133e-05
-4.82312e-05
0.000178325
-0.000131751
0.000372731
-0.000230313
0.000530794
-0.000338083
0.00069248
-0.000450262
0.000852635
-0.000560621
0.00099665
-0.000662468
0.00111108
-0.000750087
0.00118667
-0.000819768
0.00121981
-0.000870289
0.00121244
-0.000902904
0.0011709
-0.000920874
0.00110418
-0.000928599
0.00102184
-0.000930573
0.000932188
-0.000930504
0.000841113
-0.000930833
0.000751844
-0.00093273
0.00066544
-0.000936412
0.00058163
-0.000941558
0.000499602
-0.00094767
0.000418522
-0.000954291
0.000337768
-0.000961099
0.000256957
-0.000967906
0.000175894
-0.000974631
9.44851e-05
-0.000981255
1.26955e-05
-0.00098778
-6.94895e-05
-0.00099421
-0.000152047
-0.00100053
-0.000234947
-0.00100674
-0.000318123
-0.00101287
-0.000401471
-0.00101909
-0.000484864
-0.0010259
-0.000568209
-0.00103427
-0.000651607
-0.00104587
-0.000735633
-0.00106292
-0.000821723
-0.00108751
-0.000912469
-0.00111977
-0.00101131
-0.00115536
-0.00112088
-0.0011829
-0.00123935
-0.00118372
-0.00135552
-0.00113576
-0.00144518
-0.0010219
-0.00147268
-0.000840241
-0.00140082
-0.00061142
-0.00120817
-0.000377098
-0.000907964
-0.000185405
-0.00055707
-6.59199e-05
-0.000240981
-1.23923e-05
-2.92639e-05
2.01125e-06
6.46451e-05
5.59245e-05
-4.95739e-05
0.000227899
-0.000134766
0.000457923
-0.000233349
0.000629377
-0.000338434
0.000797565
-0.000444674
0.000958875
-0.000545831
0.00109781
-0.000635795
0.00120104
-0.000709896
0.00126077
-0.000765749
0.00127567
-0.000803543
0.00125023
-0.000825795
0.00119315
-0.00083661
0.001115
-0.000840608
0.00102584
-0.000841855
0.000933435
-0.00084318
0.000842437
-0.000846008
0.000754673
-0.000850649
0.000670081
-0.000856758
0.000587739
-0.000863773
0.000506617
-0.00087119
0.000425939
-0.000878672
0.00034525
-0.000886055
0.00026434
-0.000893298
0.000183137
-0.00090043
0.000101617
-0.000907502
1.97674e-05
-0.000914558
-6.24337e-05
-0.000921611
-0.000144993
-0.000928637
-0.00022792
-0.000935566
-0.000311194
-0.000942285
-0.000394752
-0.000948686
-0.000478462
-0.000954764
-0.00056213
-0.000960819
-0.000645553
-0.000967753
-0.000728698
-0.000977386
-0.00081209
-0.000992474
-0.000897382
-0.00101591
-0.000987881
-0.00104852
-0.00108826
-0.0010856
-0.00120227
-0.00111363
-0.00132749
-0.00111032
-0.00144849
-0.00105053
-0.00153248
-0.000917699
-0.00153365
-0.000716435
-0.00140944
-0.00047889
-0.00114551
-0.000257616
-0.000778344
-0.000101343
-0.000397253
-2.37728e-05
-0.000106834
2.78867e-07
4.05929e-05
5.62033e-05
-4.84142e-05
0.000276313
-0.000132331
0.00054184
-0.000228127
0.000725173
-0.000327971
0.000897409
-0.000426252
0.00105716
-0.000517037
0.00118859
-0.000595008
0.00127901
-0.000656615
0.00132238
-0.00070073
0.00131978
-0.000728729
0.00127823
-0.000744006
0.00120843
-0.000751002
0.00112199
-0.000754046
0.00102888
-0.000756424
0.000935813
-0.000759979
0.000845992
-0.000765263
0.000759957
-0.000772006
0.000676824
-0.000779622
0.000595355
-0.000787559
0.000514555
-0.000795457
0.000433837
-0.000803155
0.000352949
-0.000810642
0.000271827
-0.000817981
0.000190476
-0.000825266
0.000108903
-0.000832583
2.70843e-05
-0.000839996
-5.502e-05
-0.000847535
-0.000137454
-0.000855193
-0.000220262
-0.000862912
-0.000303474
-0.000870569
-0.000387095
-0.000877967
-0.000471063
-0.000884869
-0.000555228
-0.000891094
-0.000639328
-0.000896755
-0.000723036
-0.000902669
-0.000806176
-0.000910822
-0.000889229
-0.00092453
-0.000974173
-0.000947501
-0.00106529
-0.000980963
-0.0011688
-0.00101904
-0.00128942
-0.00104482
-0.00142271
-0.00103156
-0.00154573
-0.000951964
-0.00161324
-0.000793518
-0.00156788
-0.000572446
-0.00136658
-0.000336168
-0.00101462
-0.000145748
-0.000587673
-3.89702e-05
-0.000213613
-2.33068e-06
3.95351e-06
5.38726e-05
-4.48762e-05
0.00032119
-0.000124796
0.00062176
-0.00021539
0.000815767
-0.000308008
0.000990027
-0.000397014
0.00114616
-0.000477007
0.00126859
-0.000543564
0.00134557
-0.000594216
0.00137303
-0.000628912
0.00135448
-0.000649896
0.00129921
-0.000661
0.00121953
-0.000666544
0.00112754
-0.000670226
0.00103257
-0.000674425
0.000940013
-0.000680112
0.00085168
-0.000687228
0.000767073
-0.00069523
0.000684826
-0.00070353
0.000603655
-0.000711724
0.000522749
-0.000719636
0.00044175
-0.000727261
0.000360574
-0.000734685
0.000279251
-0.000742023
0.000197816
-0.000749388
0.000116268
-0.000756867
3.45636e-05
-0.000764526
-4.73605e-05
-0.000772399
-0.00012958
-0.000780499
-0.000212161
-0.000788801
-0.000295173
-0.000797224
-0.000378671
-0.000805612
-0.000462675
-0.000813708
-0.000547132
-0.000821164
-0.000631872
-0.000827643
-0.000716557
-0.000833097
-0.000800722
-0.00083829
-0.000884036
-0.000845464
-0.000966999
-0.000858607
-0.00105215
-0.000882205
-0.00114521
-0.00091732
-0.00125431
-0.000955544
-0.00138449
-0.000974915
-0.00152636
-0.000943843
-0.00164432
-0.00083551
-0.00167622
-0.000647246
-0.00155485
-0.000413152
-0.00124872
-0.000197102
-0.000803723
-5.86311e-05
-0.000352083
-5.88686e-06
-4.87909e-05
4.79857e-05
-3.92364e-05
0.000360426
-0.000112767
0.000695291
-0.000196186
0.000899186
-0.000280145
0.00107399
-0.000359157
0.00122517
-0.000428487
0.00133792
-0.000484623
0.0014017
-0.000526049
0.00141446
-0.000553537
0.00138197
-0.000569833
0.00131551
-0.000578807
0.00122851
-0.000584326
0.00113306
-0.000589302
0.00103754
-0.000595272
0.000945983
-0.00060256
0.000858967
-0.000610775
0.000775289
-0.000619333
0.000693384
-0.000627777
0.000612099
-0.000635887
0.00053086
-0.000643644
0.000449507
-0.000651141
0.000368071
-0.000658507
0.000286618
-0.000665869
0.000205178
-0.000673329
0.000123728
-0.000680962
4.21971e-05
-0.000688824
-3.94971e-05
-0.000696948
-0.000121456
-0.000705351
-0.000203758
-0.000714032
-0.000286491
-0.000722956
-0.000369747
-0.000732032
-0.000453598
-0.000741082
-0.000538082
-0.0007498
-0.000623153
-0.000757747
-0.00070861
-0.000764447
-0.000794022
-0.000769726
-0.000878756
-0.000774393
-0.000962332
-0.000781121
-0.00104542
-0.000794754
-0.00113157
-0.000820393
-0.00122867
-0.000857854
-0.00134703
-0.000894097
-0.00149012
-0.000900316
-0.0016381
-0.000841216
-0.00173532
-0.000696089
-0.00169997
-0.000480408
-0.0014644
-0.000251353
-0.00103278
-8.28943e-05
-0.000520542
-1.03711e-05
-0.000121314
3.76147e-05
-3.18688e-05
0.000392295
-9.69965e-05
0.000760419
-0.000171706
0.000973895
-0.000246052
0.00114833
-0.000314805
0.00129393
-0.000373956
0.00139707
-0.00042084
0.00144859
-0.000454713
0.00144833
-0.000476882
0.00140413
-0.000490249
0.00132888
-0.000498403
0.00123666
-0.000504574
0.00113923
-0.000510895
0.00104386
-0.000518228
0.000953317
-0.000526497
0.000867237
-0.000535204
0.000783997
-0.000543856
0.000702037
-0.000552168
0.000620412
-0.000560077
0.00053877
-0.000567666
0.000457096
-0.000575073
0.000375479
-0.000582434
0.00029398
-0.000589863
0.000212608
-0.000597445
0.000131311
-0.000605242
4.99951e-05
-0.000613302
-3.14363e-05
-0.000621648
-0.000113109
-0.000630299
-0.000195106
-0.000639261
-0.000277529
-0.000648521
-0.000360486
-0.000658038
-0.000444081
-0.000667712
-0.000528407
-0.000677346
-0.000613519
-0.000686589
-0.000699367
-0.000694911
-0.0007857
-0.000701714
-0.000871952
-0.000706763
-0.000957282
-0.000711075
-0.00104111
-0.000718045
-0.0011246
-0.00073357
-0.00121314
-0.000762848
-0.00131775
-0.00080247
-0.0014505
-0.000831891
-0.00160868
-0.000814611
-0.0017526
-0.0007161
-0.00179848
-0.000531375
-0.00164912
-0.00030327
-0.00126088
-0.000110755
-0.000713057
-1.57864e-05
-0.000216282
2.18283e-05
-2.31986e-05
0.000415494
-7.82904e-05
0.000815512
-0.000143148
0.00103875
-0.000207317
0.0012125
-0.00026586
0.00135247
-0.000315492
0.0014467
-0.00035429
0.00148739
-0.000382073
0.00147612
-0.000400397
0.00142246
-0.000412034
0.00134051
-0.000420084
0.00124471
-0.000427081
0.00114623
-0.00043448
0.00105126
-0.000442674
0.000961512
-0.000451393
0.000875957
-0.000460172
0.000792777
-0.000468663
0.000710527
-0.000476733
0.000628483
-0.000484429
0.000546467
-0.000491884
0.000464552
-0.000499243
0.000382839
-0.000506631
0.000301369
-0.000514143
0.000220121
-0.000521853
0.000139022
-0.000529815
5.79576e-05
-0.000538071
-2.31785e-05
-0.00054664
-0.000104539
-0.000555536
-0.000186209
-0.000564763
-0.000268302
-0.000574314
-0.000350934
-0.000584169
-0.000434225
-0.000594277
-0.000518298
-0.000604529
-0.000603266
-0.0006147
-0.000689195
-0.000624382
-0.000776017
-0.00063295
-0.000863385
-0.000639703
-0.000950529
-0.00064445
-0.00103636
-0.000648692
-0.00112036
-0.000656952
-0.00120488
-0.000676238
-0.00129846
-0.000710483
-0.00141625
-0.000749753
-0.00156941
-0.000763062
-0.00173929
-0.000708519
-0.00185303
-0.000562239
-0.0017954
-0.000347859
-0.00147526
-0.000140241
-0.000920675
-2.20267e-05
-0.000334496
-1.98314e-07
-1.36666e-05
0.000429161
-5.74472e-05
0.000859293
-0.000111636
0.00109294
-0.00016535
0.00126622
-0.000213919
0.00140104
-0.000254734
0.00148752
-0.000286488
0.00151914
-0.000309355
0.00149898
-0.000324895
0.001438
-0.000335535
0.00135116
-0.000343775
0.00125295
-0.000351486
0.00115394
-0.000359586
0.00105936
-0.000368182
0.000970108
-0.000376957
0.000884733
-0.000385549
0.000801369
-0.000393751
0.000718731
-0.000401548
0.000636281
-0.000409045
0.000553964
-0.000416386
0.000471894
-0.000423709
0.000390163
-0.000431121
0.000308782
-0.000438702
0.000227704
-0.000446521
0.000146842
-0.000454631
6.60691e-05
-0.000463078
-1.47306e-05
-0.000471874
-9.57413e-05
-0.000481031
-0.000177052
-0.000490546
-0.000258785
-0.000500411
-0.000341067
-0.000510609
-0.000424027
-0.000521109
-0.000507798
-0.00053185
-0.000592525
-0.000542701
-0.000678343
-0.000553399
-0.000765319
-0.000563456
-0.000853327
-0.000572138
-0.000941847
-0.000578684
-0.00102981
-0.000583141
-0.0011159
-0.000587931
-0.00120009
-0.000599164
-0.00128723
-0.000624442
-0.00139097
-0.000663485
-0.00153036
-0.000695262
-0.00170751
-0.000677659
-0.00187063
-0.00057217
-0.00190089
-0.00038144
-0.00166599
-0.000168804
-0.00113331
-2.92939e-05
-0.000474007
-2.94921e-05
-3.69197e-06
0.000432854
-3.52295e-05
0.000890832
-7.81755e-05
0.00113589
-0.000121346
0.00130939
-0.000160261
0.00143996
-0.000192909
0.00152016
-0.000218469
0.0015447
-0.000237288
0.0015178
-0.000250742
0.00145145
-0.00026077
0.00136118
-0.000269236
0.00126142
-0.000277419
0.00116212
-0.000285848
0.00106779
-0.000294482
0.000978743
-0.000303044
0.000893296
-0.000311294
0.00080962
-0.000319146
0.000726584
-0.000326656
0.000643791
-0.000333951
0.00056126
-0.000341172
0.000479117
-0.000348439
0.000397431
-0.000355845
0.000316189
-0.000363461
0.000235322
-0.000371354
0.000154736
-0.000379586
7.43027e-05
-0.000388207
-6.10859e-06
-0.000397232
-8.67147e-05
-0.000406668
-0.000167615
-0.000416506
-0.000248946
-0.000426731
-0.00033084
-0.000437324
-0.000413433
-0.000448258
-0.000496863
-0.000459492
-0.000581291
-0.000470947
-0.000666887
-0.00048246
-0.000753806
-0.000493701
-0.000842086
-0.000504079
-0.000931469
-0.000512743
-0.00102115
-0.000518977
-0.00110967
-0.000523413
-0.00119565
-0.000530023
-0.00128062
-0.00054675
-0.00137425
-0.00057981
-0.0014973
-0.000619439
-0.00166788
-0.000629506
-0.00186056
-0.000562867
-0.00196753
-0.00040214
-0.00182672
-0.000194029
-0.00134142
-3.76464e-05
-0.000630389
-6.71384e-05
6.18774e-06
0.000426666
-1.23022e-05
0.000909322
-4.36528e-05
0.00116724
-7.62894e-05
0.00134203
-0.000105875
0.00146954
-0.000130891
0.00154518
-0.000150888
0.0015647
-0.000166246
0.00153316
-0.000178019
0.00146323
-0.000187583
0.00137075
-0.000196172
0.00127001
-0.000204562
0.00117051
-0.000213005
0.00107624
-0.000221408
0.000987147
-0.000229577
0.000901466
-0.00023739
0.000817433
-0.000244847
0.000734043
-0.000252045
0.00065099
-0.000259116
0.000568332
-0.000266184
0.000486186
-0.000273354
0.000404603
-0.00028071
0.000323546
-0.000288319
0.000242933
-0.000296247
0.000162665
-0.000304567
8.26249e-05
-0.000313338
2.66397e-06
-0.000322586
-7.74642e-05
-0.000332315
-0.000157884
-0.000342507
-0.000238753
-0.00035314
-0.000320205
-0.000364192
-0.00040238
-0.000375632
-0.000485422
-0.000387428
-0.000569494
-0.000399525
-0.000654789
-0.000411816
-0.000741514
-0.00042408
-0.00082982
-0.000435893
-0.000919656
-0.000446532
-0.00101051
-0.000455069
-0.00110113
-0.000461053
-0.00118967
-0.000466302
-0.00127537
-0.000477069
-0.00136348
-0.000502361
-0.00147201
-0.000542174
-0.00162807
-0.000570396
-0.00183234
-0.000537713
-0.00200021
-0.000409848
-0.00195458
-0.000214169
-0.0015371
-4.66692e-05