/*--------------------------------*- C++ -*----------------------------------*\
  =========                 |
  \\      /  F ield         | OpenFOAM: The Open Source CFD Toolbox
   \\    /   O peration     | Website:  https://openfoam.org
    \\  /    A nd           | Version:  7
     \\/     M anipulation  |
\*---------------------------------------------------------------------------*/
FoamFile
{
    version     2.0;
    format      ascii;
    class       volVectorField;
    location    "350";
    object      U;
}
// * * * * * * * * * * * * * * * * * * * * * * * * * * * * * * * * * * * * * //

dimensions      [0 1 -1 0 0 0 0];

internalField   nonuniform List<vector> 
2500
(
(0.000207756 -0.000202688 0)
(0.00186881 -0.000572236 0)
(0.00448051 -0.000698745 0)
(0.00717019 -0.000600702 0)
(0.00923527 -0.000419381 0)
(0.0104547 -0.000264735 0)
(0.0109324 -0.000188606 0)
(0.0108809 -0.000186696 0)
(0.0104473 -0.000220781 0)
(0.00962591 -0.000246239 0)
(0.00826659 -0.000229173 0)
(0.00613614 -0.000150746 0)
(0.00297644 -1.89105e-06 0)
(-0.00145703 0.000222775 0)
(-0.00736972 0.000526449 0)
(-0.0148949 0.000912822 0)
(-0.0240554 0.00138208 0)
(-0.0347219 0.00192274 0)
(-0.0465765 0.00250165 0)
(-0.0590929 0.00305642 0)
(-0.0715422 0.00349697 0)
(-0.0830297 0.0037183 0)
(-0.0925647 0.00362146 0)
(-0.0991621 0.00314059 0)
(-0.101953 0.00226916 0)
(-0.10026 0.00106465 0)
(-0.0938086 -0.000342654 0)
(-0.0826673 -0.00178663 0)
(-0.0672993 -0.0030934 0)
(-0.0485564 -0.00409557 0)
(-0.0276532 -0.00464808 0)
(-0.00607445 -0.00462925 0)
(0.0146512 -0.00397188 0)
(0.0330512 -0.00282539 0)
(0.047815 -0.00141385 0)
(0.0579755 8.42679e-05 0)
(0.0631414 0.00146065 0)
(0.0635169 0.00250649 0)
(0.0598982 0.00309433 0)
(0.0534493 0.00321631 0)
(0.045403 0.00298434 0)
(0.0368667 0.00255124 0)
(0.0286821 0.00205203 0)
(0.0213741 0.00157806 0)
(0.0151765 0.00117765 0)
(0.010103 0.000866289 0)
(0.00604564 0.00063357 0)
(0.00291148 0.000437942 0)
(0.000800162 0.000194352 0)
(-8.11605e-05 -8.65295e-05 0)
(0.000567762 -0.00182394 0)
(0.00437966 -0.00432472 0)
(0.00958957 -0.00512242 0)
(0.0146096 -0.00444296 0)
(0.0181615 -0.00299777 0)
(0.0197599 -0.00145546 0)
(0.0194437 -0.000189004 0)
(0.0174235 0.000770704 0)
(0.0137828 0.00163347 0)
(0.00833016 0.00267855 0)
(0.000626258 0.0041233 0)
(-0.00988739 0.00607343 0)
(-0.0237412 0.00853299 0)
(-0.0412982 0.0114348 0)
(-0.0626379 0.0146401 0)
(-0.0874508 0.0179226 0)
(-0.114976 0.020961 0)
(-0.144014 0.023362 0)
(-0.17304 0.0247161 0)
(-0.200369 0.0246657 0)
(-0.224344 0.0229636 0)
(-0.243482 0.0195098 0)
(-0.256586 0.0143681 0)
(-0.262796 0.00777005 0)
(-0.261637 0.000104559 0)
(-0.253041 -0.00811337 0)
(-0.237202 -0.0163126 0)
(-0.214565 -0.0239396 0)
(-0.185892 -0.0304314 0)
(-0.152268 -0.0352533 0)
(-0.1151 -0.0379414 0)
(-0.0760818 -0.0381503 0)
(-0.0371234 -0.035729 0)
(-0.00016472 -0.0308555 0)
(0.0329478 -0.0240249 0)
(0.0605326 -0.0159627 0)
(0.0812682 -0.00749044 0)
(0.0944202 0.000509591 0)
(0.099852 0.00719185 0)
(0.0981589 0.0119688 0)
(0.0907904 0.0146363 0)
(0.0795307 0.0153912 0)
(0.0662071 0.0146958 0)
(0.0524221 0.0131038 0)
(0.0393594 0.0111223 0)
(0.0277195 0.00911955 0)
(0.0177955 0.0072593 0)
(0.00969756 0.00544494 0)
(0.0037339 0.00335205 0)
(0.000330725 0.000923276 0)
(0.000787206 -0.00450325 0)
(0.00569287 -0.00970672 0)
(0.0117202 -0.0109236 0)
(0.0169008 -0.00900432 0)
(0.0197445 -0.00541526 0)
(0.0196748 -0.0014552 0)
(0.0166093 0.00217278 0)
(0.0105438 0.00545105 0)
(0.0012498 0.00882087 0)
(-0.0118081 0.0128496 0)
(-0.0293452 0.0179228 0)
(-0.0519894 0.0241162 0)
(-0.0800443 0.0312165 0)
(-0.113275 0.0387579 0)
(-0.150801 0.0460574 0)
(-0.191139 0.0522938 0)
(-0.232393 0.0566425 0)
(-0.272524 0.0584177 0)
(-0.309607 0.0571743 0)
(-0.342017 0.0527481 0)
(-0.368521 0.0452398 0)
(-0.388276 0.0349654 0)
(-0.400776 0.0223979 0)
(-0.405762 0.00811652 0)
(-0.403164 -0.0072298 0)
(-0.39296 -0.0229602 0)
(-0.375185 -0.0383662 0)
(-0.350105 -0.0526617 0)
(-0.318202 -0.0650119 0)
(-0.280238 -0.074577 0)
(-0.237297 -0.0805814 0)
(-0.190811 -0.0824115 0)
(-0.142535 -0.0797307 0)
(-0.0944732 -0.0725879 0)
(-0.0487377 -0.0615229 0)
(-0.00732987 -0.0475382 0)
(0.0280255 -0.0319228 0)
(0.0559615 -0.0161295 0)
(0.075777 -0.00144981 0)
(0.0872057 0.010918 0)
(0.0904916 0.0200599 0)
(0.0868824 0.0256043 0)
(0.07808 0.0277767 0)
(0.0659732 0.0272627 0)
(0.0523641 0.0249603 0)
(0.0387178 0.0217261 0)
(0.0260398 0.018133 0)
(0.0149752 0.014254 0)
(0.006261 0.00959759 0)
(0.000706252 0.00359532 0)
(0.000918866 -0.00773681 0)
(0.00606832 -0.0156033 0)
(0.0115366 -0.0165377 0)
(0.0151367 -0.0124372 0)
(0.0153663 -0.00570562 0)
(0.0116668 0.00174001 0)
(0.00381192 0.00899677 0)
(-0.0085508 0.0161774 0)
(-0.0260902 0.0240471 0)
(-0.0496235 0.0333566 0)
(-0.0797859 0.0443825 0)
(-0.116669 0.0567789 0)
(-0.159595 0.0696647 0)
(-0.207099 0.0818124 0)
(-0.257133 0.0918906 0)
(-0.307406 0.0987136 0)
(-0.355744 0.101436 0)
(-0.40034 0.0996411 0)
(-0.439867 0.0933188 0)
(-0.473457 0.0827747 0)
(-0.500593 0.068512 0)
(-0.520985 0.0511294 0)
(-0.534446 0.0312549 0)
(-0.540816 0.00952275 0)
(-0.539941 -0.013409 0)
(-0.531636 -0.0368146 0)
(-0.515769 -0.0598518 0)
(-0.492313 -0.081559 0)
(-0.461369 -0.100872 0)
(-0.423249 -0.11665 0)
(-0.378566 -0.127755 0)
(-0.328327 -0.133182 0)
(-0.273994 -0.132227 0)
(-0.217498 -0.124678 0)
(-0.16115 -0.110957 0)
(-0.107433 -0.0921675 0)
(-0.0587018 -0.0700055 0)
(-0.0168365 -0.0464767 0)
(0.0169626 -0.0234993 0)
(0.0420945 -0.00282517 0)
(0.0585052 0.0143056 0)
(0.0664425 0.0269647 0)
(0.0670133 0.0347706 0)
(0.0617699 0.0380576 0)
(0.0525 0.0377255 0)
(0.0409952 0.0349087 0)
(0.028809 0.030566 0)
(0.0171805 0.0250417 0)
(0.00741846 0.017754 0)
(0.000862043 0.00737534 0)
(0.00100013 -0.011027 0)
(0.00560289 -0.0208301 0)
(0.00920108 -0.0203311 0)
(0.00962098 -0.0128623 0)
(0.00552584 -0.00187508 0)
(-0.00360396 0.0102092 0)
(-0.0182368 0.0224945 0)
(-0.0391316 0.0354291 0)
(-0.0672229 0.0499528 0)
(-0.103158 0.0665863 0)
(-0.146824 0.0849483 0)
(-0.197133 0.1038 0)
(-0.252131 0.121403 0)
(-0.309361 0.135962 0)
(-0.366312 0.145994 0)
(-0.420807 0.150553 0)
(-0.471209 0.14928 0)
(-0.516442 0.142307 0)
(-0.555888 0.130095 0)
(-0.589234 0.113268 0)
(-0.616332 0.0925003 0)
(-0.637104 0.0684503 0)
(-0.651491 0.0417516 0)
(-0.65942 0.0130269 0)
(-0.660788 -0.0170766 0)
(-0.655464 -0.0478369 0)
(-0.643232 -0.0784016 0)
(-0.623814 -0.107765 0)
(-0.596915 -0.134752 0)
(-0.562297 -0.158009 0)
(-0.519903 -0.176061 0)
(-0.470015 -0.187436 0)
(-0.413433 -0.190872 0)
(-0.351624 -0.185586 0)
(-0.28678 -0.171545 0)
(-0.221735 -0.149666 0)
(-0.159653 -0.121831 0)
(-0.103544 -0.0906422 0)
(-0.0557086 -0.0589573 0)
(-0.0173516 -0.0293062 0)
(0.0113923 -0.00347481 0)
(0.0309097 0.0173287 0)
(0.0417472 0.0324312 0)
(0.0451058 0.0416732 0)
(0.0425034 0.0455871 0)
(0.0356645 0.0452376 0)
(0.0263519 0.0417328 0)
(0.0162255 0.0355945 0)
(0.00709938 0.0261625 0)
(0.000795337 0.0113888 0)
(0.000994737 -0.0139263 0)
(0.00414268 -0.0242781 0)
(0.00453003 -0.0208315 0)
(0.000303955 -0.00864834 0)
(-0.0096076 0.00776736 0)
(-0.0257692 0.025739 0)
(-0.0489272 0.0446702 0)
(-0.0800619 0.0652354 0)
(-0.119881 0.088085 0)
(-0.168187 0.112894 0)
(-0.223618 0.138195 0)
(-0.283857 0.161828 0)
(-0.346126 0.181569 0)
(-0.40773 0.195647 0)
(-0.466451 0.202999 0)
(-0.520718 0.203291 0)
(-0.569568 0.196758 0)
(-0.612506 0.183987 0)
(-0.649352 0.165729 0)
(-0.680118 0.142767 0)
(-0.704936 0.115854 0)
(-0.72401 0.0856902 0)
(-0.73757 0.0529197 0)
(-0.74581 0.0181436 0)
(-0.748841 -0.0180539 0)
(-0.746665 -0.0550641 0)
(-0.739085 -0.0921858 0)
(-0.725665 -0.128546 0)
(-0.705785 -0.163046 0)
(-0.678675 -0.194302 0)
(-0.643533 -0.220647 0)
(-0.599704 -0.240211 0)
(-0.54693 -0.2511 0)
(-0.485647 -0.251702 0)
(-0.417252 -0.241079 0)
(-0.344266 -0.219369 0)
(-0.270252 -0.188067 0)
(-0.199397 -0.150019 0)
(-0.13576 -0.108991 0)
(-0.0823618 -0.0688722 0)
(-0.0405128 -0.0327982 0)
(-0.00985117 -0.00264939 0)
(0.0107893 0.0208329 0)
(0.0226007 0.0373674 0)
(0.0270096 0.0471661 0)
(0.0256792 0.0510065 0)
(0.0203984 0.0498799 0)
(0.0130405 0.0442907 0)
(0.00573325 0.0334662 0)
(0.000589232 0.0148924 0)
(0.000836749 -0.0158552 0)
(0.00145139 -0.0247225 0)
(-0.00267148 -0.0166055 0)
(-0.0128131 0.00157733 0)
(-0.0297572 0.0245704 0)
(-0.0541805 0.0497828 0)
(-0.0869825 0.0769083 0)
(-0.128915 0.106404 0)
(-0.179837 0.13801 0)
(-0.238302 0.170164 0)
(-0.301766 0.200375 0)
(-0.367186 0.226009 0)
(-0.431649 0.244957 0)
(-0.492797 0.255969 0)
(-0.548985 0.258668 0)
(-0.599234 0.253348 0)
(-0.643081 0.240725 0)
(-0.68044 0.221718 0)
(-0.711503 0.197303 0)
(-0.736664 0.168427 0)
(-0.756458 0.135955 0)
(-0.771481 0.100638 0)
(-0.782311 0.0631005 0)
(-0.78943 0.0238571 0)
(-0.793167 -0.0166572 0)
(-0.793675 -0.0580429 0)
(-0.79086 -0.0998701 0)
(-0.784276 -0.141555 0)
(-0.773176 -0.182265 0)
(-0.756476 -0.220823 0)
(-0.732816 -0.25563 0)
(-0.700685 -0.284657 0)
(-0.658658 -0.305541 0)
(-0.605755 -0.315833 0)
(-0.541886 -0.313406 0)
(-0.468296 -0.297023 0)
(-0.387867 -0.266915 0)
(-0.305078 -0.225207 0)
(-0.225455 -0.175902 0)
(-0.154475 -0.124232 0)
(-0.0961594 -0.0754036 0)
(-0.0519952 -0.0332316 0)
(-0.0209886 0.000508196 0)
(-0.000936414 0.0256681 0)
(0.0101608 0.0425818 0)
(0.0142065 0.0518688 0)
(0.0131358 0.0543232 0)
(0.00897175 0.050297 0)
(0.00398319 0.0388955 0)
(0.000360502 0.0174811 0)
(0.000459354 -0.0160674 0)
(-0.00261942 -0.0208841 0)
(-0.0123825 -0.0064781 0)
(-0.029388 0.0188421 0)
(-0.0541654 0.0495003 0)
(-0.087466 0.083157 0)
(-0.130007 0.119455 0)
(-0.181782 0.158034 0)
(-0.241447 0.197323 0)
(-0.306396 0.2346 0)
(-0.373384 0.266814 0)
(-0.439243 0.291434 0)
(-0.501376 0.30691 0)
(-0.557954 0.312727 0)
(-0.607881 0.30919 0)
(-0.650665 0.297146 0)
(-0.686294 0.277731 0)
(-0.715139 0.252193 0)
(-0.737858 0.221765 0)
(-0.755301 0.187572 0)
(-0.768398 0.150563 0)
(-0.778057 0.111477 0)
(-0.785076 0.070843 0)
(-0.790097 0.0290188 0)
(-0.793582 -0.013762 0)
(-0.795796 -0.0573429 0)
(-0.796777 -0.101594 0)
(-0.796222 -0.146285 0)
(-0.793506 -0.190971 0)
(-0.787587 -0.234874 0)
(-0.776961 -0.276753 0)
(-0.759676 -0.314786 0)
(-0.733459 -0.346535 0)
(-0.696006 -0.369036 0)
(-0.645463 -0.379108 0)
(-0.581059 -0.373908 0)
(-0.50379 -0.351701 0)
(-0.416911 -0.31271 0)
(-0.325976 -0.259741 0)
(-0.238131 -0.198204 0)
(-0.160576 -0.135176 0)
(-0.0985132 -0.0775129 0)
(-0.0535388 -0.0297912 0)
(-0.0237542 0.00654504 0)
(-0.00569593 0.0322019 0)
(0.00351511 0.0481128 0)
(0.00639104 0.055121 0)
(0.00525076 0.0535021 0)
(0.00247177 0.0423236 0)
(0.000208017 0.0191363 0)
(-0.000180268 -0.0137289 0)
(-0.00802194 -0.011692 0)
(-0.0242326 0.010396 0)
(-0.0486043 0.0437444 0)
(-0.0814527 0.0829253 0)
(-0.123409 0.12572 0)
(-0.174597 0.171186 0)
(-0.233925 0.217707 0)
(-0.298909 0.262416 0)
(-0.366205 0.301857 0)
(-0.43239 0.332975 0)
(-0.494567 0.353775 0)
(-0.550637 0.363471 0)
(-0.599316 0.362308 0)
(-0.640042 0.351244 0)
(-0.672859 0.331668 0)
(-0.698306 0.305157 0)
(-0.717298 0.273303 0)
(-0.730968 0.237559 0)
(-0.740517 0.199135 0)
(-0.747084 0.158951 0)
(-0.751661 0.117627 0)
(-0.755046 0.0755269 0)
(-0.757846 0.0328172 0)
(-0.760511 -0.0104679 0)
(-0.763345 -0.054378 0)
(-0.766473 -0.0990125 0)
(-0.769816 -0.144435 0)
(-0.773057 -0.190579 0)
(-0.775516 -0.237143 0)
(-0.776016 -0.283435 0)
(-0.772771 -0.328191 0)
(-0.763323 -0.369393 0)
(-0.744647 -0.404155 0)
(-0.713487 -0.428798 0)
(-0.666975 -0.439212 0)
(-0.603516 -0.431586 0)
(-0.523762 -0.403478 0)
(-0.431375 -0.355016 0)
(-0.333154 -0.289827 0)
(-0.238126 -0.215101 0)
(-0.155435 -0.140241 0)
(-0.0914558 -0.0740867 0)
(-0.0475692 -0.0219062 0)
(-0.0205543 0.015519 0)
(-0.00556192 0.0399003 0)
(0.00114568 0.0526223 0)
(0.002641 0.0542763 0)
(0.0015933 0.0441305 0)
(0.000183303 0.0201399 0)
(-0.00108294 -0.00807425 0)
(-0.0144768 0.00359695 0)
(-0.037479 0.0343887 0)
(-0.0692002 0.0763322 0)
(-0.10969 0.124456 0)
(-0.159194 0.176292 0)
(-0.216948 0.229849 0)
(-0.280776 0.282149 0)
(-0.347393 0.32937 0)
(-0.413185 0.367852 0)
(-0.474931 0.394978 0)
(-0.530205 0.409527 0)
(-0.577476 0.411555 0)
(-0.616064 0.40208 0)
(-0.646039 0.38274 0)
(-0.668098 0.355486 0)
(-0.683394 0.322322 0)
(-0.693327 0.285084 0)
(-0.699337 0.245291 0)
(-0.702726 0.204066 0)
(-0.704575 0.162146 0)
(-0.70571 0.119938 0)
(-0.706721 0.0776017 0)
(-0.708013 0.0351263 0)
(-0.709892 -0.00759979 0)
(-0.71261 -0.050744 0)
(-0.716308 -0.0945066 0)
(-0.721099 -0.1391 0)
(-0.726997 -0.184701 0)
(-0.733816 -0.231396 0)
(-0.741011 -0.279055 0)
(-0.747468 -0.327145 0)
(-0.751287 -0.37446 0)
(-0.749628 -0.418836 0)
(-0.738751 -0.456917 0)
(-0.714386 -0.484178 0)
(-0.672527 -0.495341 0)
(-0.610623 -0.485349 0)
(-0.528937 -0.45084 0)
(-0.431638 -0.391852 0)
(-0.327022 -0.313151 0)
(-0.226289 -0.224299 0)
(-0.140625 -0.137645 0)
(-0.0772693 -0.0642304 0)
(-0.0367111 -0.00963483 0)
(-0.0138659 0.0265568 0)
(-0.00268038 0.046964 0)
(0.00127486 0.0531171 0)
(0.00143655 0.0449326 0)
(0.000287893 0.020912 0)
(-0.00219032 0.00143892 0)
(-0.0214821 0.0252635 0)
(-0.051116 0.0653533 0)
(-0.0896214 0.116063 0)
(-0.136675 0.172945 0)
(-0.191904 0.232875 0)
(-0.253594 0.29258 0)
(-0.318724 0.347924 0)
(-0.383622 0.394601 0)
(-0.444777 0.429209 0)
(-0.499398 0.449865 0)
(-0.545647 0.456251 0)
(-0.582661 0.449327 0)
(-0.61048 0.430938 0)
(-0.629913 0.403417 0)
(-0.642329 0.369231 0)
(-0.649382 0.33066 0)
(-0.652735 0.289573 0)
(-0.653843 0.247327 0)
(-0.653835 0.204775 0)
(-0.653499 0.162353 0)
(-0.653332 0.120209 0)
(-0.653615 0.0783071 0)
(-0.654488 0.036513 0)
(-0.656063 -0.00535116 0)
(-0.658484 -0.0474721 0)
(-0.661857 -0.0900341 0)
(-0.666365 -0.133244 0)
(-0.672231 -0.177343 0)
(-0.679653 -0.222597 0)
(-0.688697 -0.269254 0)
(-0.699096 -0.317413 0)
(-0.709965 -0.36679 0)
(-0.71946 -0.416348 0)
(-0.724482 -0.463837 0)
(-0.720617 -0.505406 0)
(-0.702521 -0.535507 0)
(-0.664929 -0.547403 0)
(-0.604243 -0.534469 0)
(-0.520391 -0.492264 0)
(-0.418304 -0.42092 0)
(-0.308181 -0.326967 0)
(-0.20372 -0.223257 0)
(-0.118067 -0.125799 0)
(-0.0585649 -0.0477321 0)
(-0.0237283 0.00596116 0)
(-0.00624408 0.0375471 0)
(0.000650452 0.0502349 0)
(0.00179919 0.0452543 0)
(0.000485276 0.0218347 0)
(-0.00336601 0.0150381 0)
(-0.0283896 0.0530982 0)
(-0.0640228 0.102656 0)
(-0.108259 0.161841 0)
(-0.160291 0.22666 0)
(-0.219031 0.293036 0)
(-0.281941 0.356441 0)
(-0.345499 0.411947 0)
(-0.406009 0.455232 0)
(-0.460316 0.483499 0)
(-0.506211 0.495793 0)
(-0.542558 0.492808 0)
(-0.569273 0.476479 0)
(-0.587196 0.449492 0)
(-0.597855 0.414809 0)
(-0.603129 0.375218 0)
(-0.604902 0.333017 0)
(-0.604782 0.289843 0)
(-0.603956 0.246683 0)
(-0.603175 0.203998 0)
(-0.602831 0.161894 0)
(-0.603069 0.12028 0)
(-0.60389 0.0789863 0)
(-0.60523 0.0378255 0)
(-0.607048 -0.00337459 0)
(-0.60939 -0.044754 0)
(-0.612312 -0.0864223 0)
(-0.615958 -0.128497 0)
(-0.620578 -0.171145 0)
(-0.626509 -0.214611 0)
(-0.634149 -0.259238 0)
(-0.643846 -0.305452 0)
(-0.655693 -0.353639 0)
(-0.669154 -0.40386 0)
(-0.682581 -0.455345 0)
(-0.692725 -0.505824 0)
(-0.694512 -0.550868 0)
(-0.681451 -0.583664 0)
(-0.646904 -0.595631 0)
(-0.586219 -0.578239 0)
(-0.499211 -0.525926 0)
(-0.39207 -0.439433 0)
(-0.277506 -0.328158 0)
(-0.172053 -0.209548 0)
(-0.0903491 -0.103897 0)
(-0.0383997 -0.0255743 0)
(-0.0113967 0.0226678 0)
(-0.000189236 0.0451882 0)
(0.00228267 0.0452371 0)
(0.000719264 0.023111 0)
(-0.00444635 0.0325641 0)
(-0.0345476 0.0864286 0)
(-0.0751441 0.145232 0)
(-0.123689 0.212154 0)
(-0.178832 0.28356 0)
(-0.238805 0.354301 0)
(-0.300494 0.418808 0)
(-0.360208 0.471783 0)
(-0.414494 0.509274 0)
(-0.460731 0.529347 0)
(-0.497408 0.532125 0)
(-0.524187 0.519408 0)
(-0.541813 0.494127 0)
(-0.551873 0.45973 0)
(-0.556417 0.419587 0)
(-0.557535 0.376518 0)
(-0.557003 0.332535 0)
(-0.556091 0.288818 0)
(-0.555542 0.245873 0)
(-0.555668 0.20376 0)
(-0.556503 0.162312 0)
(-0.557939 0.121291 0)
(-0.559821 0.0804751 0)
(-0.561996 0.0396888 0)
(-0.564362 -0.00119286 0)
(-0.56692 -0.0422464 0)
(-0.56969 -0.0835064 0)
(-0.572735 -0.125 0)
(-0.576215 -0.166782 0)
(-0.580397 -0.208969 0)
(-0.585681 -0.251794 0)
(-0.59261 -0.295667 0)
(-0.601797 -0.341195 0)
(-0.613715 -0.389091 0)
(-0.628258 -0.43984 0)
(-0.644071 -0.493034 0)
(-0.657812 -0.54639 0)
(-0.663718 -0.594747 0)
(-0.654024 -0.629641 0)
(-0.620634 -0.640154 0)
(-0.557966 -0.615526 0)
(-0.466219 -0.549307 0)
(-0.353673 -0.443921 0)
(-0.236366 -0.313415 0)
(-0.133818 -0.181473 0)
(-0.0609446 -0.0727004 0)
(-0.020114 -0.000456153 0)
(-0.00230977 0.036742 0)
(0.00244999 0.044494 0)
(0.000937433 0.0247 0)
(-0.00528334 0.0534484 0)
(-0.0393971 0.12419 0)
(-0.0836263 0.191704 0)
(-0.134853 0.265265 0)
(-0.19119 0.341568 0)
(-0.250324 0.414449 0)
(-0.308838 0.477611 0)
(-0.363142 0.525774 0)
(-0.410222 0.555667 0)
(-0.448105 0.566415 0)
(-0.476056 0.559333 0)
(-0.494559 0.537365 0)
(-0.505117 0.504361 0)
(-0.509856 0.464309 0)
(-0.511039 0.420673 0)
(-0.510626 0.375974 0)
(-0.510008 0.331698 0)
(-0.509962 0.288456 0)
(-0.510763 0.246287 0)
(-0.512368 0.204946 0)
(-0.514587 0.164113 0)
(-0.517209 0.123512 0)
(-0.520051 0.0829445 0)
(-0.522974 0.0422839 0)
(-0.525895 0.00146086 0)
(-0.528813 -0.0395537 0)
(-0.531751 -0.0807497 0)
(-0.534699 -0.12211 0)
(-0.537715 -0.163611 0)
(-0.540914 -0.205252 0)
(-0.544521 -0.247095 0)
(-0.548931 -0.289349 0)
(-0.554766 -0.332466 0)
(-0.562859 -0.377232 0)
(-0.57406 -0.424712 0)
(-0.588727 -0.475889 0)
(-0.605846 -0.530773 0)
(-0.621962 -0.587004 0)
(-0.630486 -0.638369 0)
(-0.622192 -0.674167 0)
(-0.587479 -0.68052 0)
(-0.520207 -0.64424 0)
(-0.421863 -0.558765 0)
(-0.304044 -0.430176 0)
(-0.187005 -0.279796 0)
(-0.0927774 -0.139117 0)
(-0.033995 -0.0354225 0)
(-0.00654533 0.0229571 0)
(0.00198803 0.0421562 0)
(0.00111255 0.0263509 0)
(-0.0057566 0.076781 0)
(-0.0425295 0.165046 0)
(-0.0889023 0.240524 0)
(-0.141147 0.319401 0)
(-0.196899 0.398793 0)
(-0.253489 0.471693 0)
(-0.307444 0.531418 0)
(-0.355478 0.573041 0)
(-0.395135 0.594206 0)
(-0.425156 0.595242 0)
(-0.445588 0.578715 0)
(-0.457661 0.548654 0)
(-0.463434 0.509623 0)
(-0.465275 0.465834 0)
(-0.46533 0.420498 0)
(-0.465162 0.375575 0)
(-0.465645 0.331907 0)
(-0.467065 0.289564 0)
(-0.46934 0.248236 0)
(-0.472224 0.207518 0)
(-0.475461 0.167067 0)
(-0.478855 0.126652 0)
(-0.482282 0.0861377 0)
(-0.485667 0.0454579 0)
(-0.488975 0.00458356 0)
(-0.492236 -0.0364918 0)
(-0.495479 -0.077748 0)
(-0.498672 -0.119166 0)
(-0.501809 -0.160703 0)
(-0.504886 -0.202303 0)
(-0.507944 -0.243915 0)
(-0.511124 -0.285544 0)
(-0.514765 -0.327353 0)
(-0.519519 -0.369817 0)
(-0.526397 -0.413894 0)
(-0.536613 -0.461045 0)
(-0.550999 -0.512814 0)
(-0.568856 -0.56965 0)
(-0.586472 -0.628909 0)
(-0.596151 -0.682743 0)
(-0.586939 -0.71734 0)
(-0.547825 -0.71514 0)
(-0.472885 -0.660732 0)
(-0.366358 -0.54922 0)
(-0.244754 -0.393655 0)
(-0.133108 -0.226018 0)
(-0.0540086 -0.0859819 0)
(-0.013381 0.00143033 0)
(0.000746886 0.0370477 0)
(0.00124867 0.0277059 0)
(-0.00579174 0.101426 0)
(-0.0437163 0.207514 0)
(-0.0907152 0.290116 0)
(-0.14241 0.372918 0)
(-0.196065 0.45366 0)
(-0.248842 0.524748 0)
(-0.297414 0.579426 0)
(-0.33893 0.613389 0)
(-0.371554 0.62537 0)
(-0.394738 0.616981 0)
(-0.409238 0.592011 0)
(-0.416849 0.555407 0)
(-0.419917 0.512155 0)
(-0.420741 0.46634 0)
(-0.421102 0.420637 0)
(-0.422042 0.376311 0)
(-0.423934 0.333579 0)
(-0.426699 0.292102 0)
(-0.430062 0.251384 0)
(-0.433729 0.211001 0)
(-0.437487 0.170677 0)
(-0.441219 0.130263 0)
(-0.444882 0.0896962 0)
(-0.448468 0.0489543 0)
(-0.45198 0.00802866 0)
(-0.455481 -0.0330857 0)
(-0.45901 -0.0743784 0)
(-0.462539 -0.115851 0)
(-0.466043 -0.157478 0)
(-0.469474 -0.19921 0)
(-0.472768 -0.240967 0)
(-0.475881 -0.282651 0)
(-0.478855 -0.3242 0)
(-0.481951 -0.365717 0)
(-0.485816 -0.40769 0)
(-0.491624 -0.45127 0)
(-0.500952 -0.498379 0)
(-0.515092 -0.551211 0)
(-0.533542 -0.610589 0)
(-0.552019 -0.673133 0)
(-0.561241 -0.728367 0)
(-0.54824 -0.758129 0)
(-0.501013 -0.740575 0)
(-0.41529 -0.6592 0)
(-0.300203 -0.514272 0)
(-0.178858 -0.330837 0)
(-0.0803681 -0.154823 0)
(-0.0231586 -0.0306193 0)
(-0.00130567 0.0278439 0)
(0.00136503 0.0283893 0)
(-0.00536684 0.126142 0)
(-0.0429055 0.250089 0)
(-0.0890908 0.338993 0)
(-0.138863 0.4244 0)
(-0.18923 0.504973 0)
(-0.237357 0.572816 0)
(-0.280205 0.621372 0)
(-0.31543 0.647155 0)
(-0.341814 0.650092 0)
(-0.359456 0.633083 0)
(-0.369666 0.601021 0)
(-0.374571 0.559521 0)
(-0.376523 0.51366 0)
(-0.377523 0.467103 0)
(-0.37886 0.421824 0)
(-0.381076 0.378388 0)
(-0.384162 0.336517 0)
(-0.387841 0.295636 0)
(-0.391797 0.255213 0)
(-0.395791 0.2149 0)
(-0.3997 0.174521 0)
(-0.403494 0.134013 0)
(-0.407198 0.0933658 0)
(-0.410841 0.0525793 0)
(-0.414449 0.011647 0)
(-0.418096 -0.0294458 0)
(-0.42183 -0.0707042 0)
(-0.425638 -0.112152 0)
(-0.429497 -0.153794 0)
(-0.433364 -0.195613 0)
(-0.437159 -0.237559 0)
(-0.440767 -0.279529 0)
(-0.444064 -0.321378 0)
(-0.446997 -0.362972 0)
(-0.44974 -0.404345 0)
(-0.45294 -0.446009 0)
(-0.457943 -0.489371 0)
(-0.466713 -0.53694 0)
(-0.480962 -0.591655 0)
(-0.500137 -0.654501 0)
(-0.518814 -0.720466 0)
(-0.525461 -0.774847 0)
(-0.504958 -0.793602 0)
(-0.445405 -0.750634 0)
(-0.346589 -0.631376 0)
(-0.225261 -0.447398 0)
(-0.112023 -0.242241 0)
(-0.0363461 -0.0761599 0)
(-0.00424277 0.0130536 0)
(0.00145309 0.0279937 0)
(-0.00450765 0.149691 0)
(-0.0401932 0.291337 0)
(-0.0842765 0.38584 0)
(-0.130993 0.472711 0)
(-0.177211 0.551909 0)
(-0.220229 0.615522 0)
(-0.257386 0.657405 0)
(-0.28686 0.67502 0)
(-0.308001 0.66952 0)
(-0.321429 0.645021 0)
(-0.328809 0.607328 0)
(-0.332359 0.562433 0)
(-0.334222 0.515214 0)
(-0.33597 0.468717 0)
(-0.338403 0.424178 0)
(-0.341671 0.381571 0)
(-0.345545 0.340294 0)
(-0.349697 0.299692 0)
(-0.353862 0.2593 0)
(-0.3579 0.218885 0)
(-0.361777 0.178368 0)
(-0.365527 0.137748 0)
(-0.369212 0.0970404 0)
(-0.372876 0.056248 0)
(-0.376545 0.0153559 0)
(-0.380288 -0.0256639 0)
(-0.384163 -0.0668299 0)
(-0.388163 -0.108183 0)
(-0.392274 -0.14975 0)
(-0.396473 -0.19155 0)
(-0.400704 -0.233573 0)
(-0.404865 -0.275766 0)
(-0.408802 -0.318011 0)
(-0.412322 -0.36011 0)
(-0.415284 -0.401849 0)
(-0.417788 -0.443194 0)
(-0.42051 -0.484726 0)
(-0.425027 -0.528242 0)
(-0.43374 -0.57705 0)
(-0.448686 -0.634906 0)
(-0.468782 -0.702396 0)
(-0.486572 -0.771231 0)
(-0.487514 -0.820118 0)
(-0.454768 -0.817714 0)
(-0.378813 -0.735494 0)
(-0.267036 -0.567262 0)
(-0.146426 -0.345305 0)
(-0.0532517 -0.137382 0)
(-0.00822739 -0.00894275 0)
(0.00146504 0.026066 0)
(-0.00327768 0.170938 0)
(-0.0357842 0.329967 0)
(-0.0766688 0.429556 0)
(-0.11945 0.516999 0)
(-0.160954 0.593972 0)
(-0.198703 0.652815 0)
(-0.230457 0.687948 0)
(-0.254885 0.697835 0)
(-0.27181 0.68482 0)
(-0.282211 0.654098 0)
(-0.28791 0.61215 0)
(-0.29101 0.565078 0)
(-0.293313 0.517343 0)
(-0.295937 0.471292 0)
(-0.299284 0.427493 0)
(-0.303251 0.385483 0)
(-0.307529 0.3445 0)
(-0.31183 0.303921 0)
(-0.315985 0.263399 0)
(-0.319946 0.222809 0)
(-0.323743 0.182148 0)
(-0.327444 0.141442 0)
(-0.331122 0.100712 0)
(-0.334819 0.0599524 0)
(-0.338553 0.0191347 0)
(-0.34238 -0.0217813 0)
(-0.346364 -0.0628233 0)
(-0.350502 -0.104043 0)
(-0.35478 -0.145482 0)
(-0.359193 -0.187179 0)
(-0.363712 -0.22916 0)
(-0.368275 -0.271427 0)
(-0.372765 -0.313925 0)
(-0.376993 -0.356511 0)
(-0.380709 -0.398929 0)
(-0.383693 -0.440874 0)
(-0.386002 -0.482264 0)
(-0.388403 -0.523849 0)
(-0.392816 -0.568061 0)
(-0.402149 -0.619318 0)
(-0.418518 -0.682101 0)
(-0.439456 -0.755312 0)
(-0.454223 -0.824557 0)
(-0.444803 -0.858953 0)
(-0.394335 -0.819733 0)
(-0.299668 -0.681633 0)
(-0.180063 -0.458385 0)
(-0.0733298 -0.214634 0)
(-0.013502 -0.0399129 0)
(0.00137932 0.0221287 0)
(-0.00176637 0.188909 0)
(-0.0299516 0.36487 0)
(-0.0667433 0.469262 0)
(-0.104947 0.556676 0)
(-0.141416 0.630933 0)
(-0.173948 0.684872 0)
(-0.200727 0.713566 0)
(-0.220852 0.716473 0)
(-0.234495 0.697035 0)
(-0.242831 0.661339 0)
(-0.247654 0.616314 0)
(-0.250817 0.567954 0)
(-0.253728 0.520183 0)
(-0.257109 0.474674 0)
(-0.261078 0.43145 0)
(-0.265411 0.389772 0)
(-0.269813 0.348841 0)
(-0.27408 0.308129 0)
(-0.278134 0.267408 0)
(-0.281993 0.226642 0)
(-0.285722 0.185867 0)
(-0.289401 0.145118 0)
(-0.293096 0.104405 0)
(-0.296847 0.0637092 0)
(-0.300655 0.022989 0)
(-0.304565 -0.0178057 0)
(-0.308649 -0.0587085 0)
(-0.312906 -0.0997793 0)
(-0.317315 -0.141066 0)
(-0.321879 -0.182621 0)
(-0.326585 -0.224489 0)
(-0.331403 -0.266708 0)
(-0.336265 -0.309284 0)
(-0.341039 -0.35216 0)
(-0.345505 -0.395157 0)
(-0.349355 -0.437941 0)
(-0.352306 -0.480107 0)
(-0.354421 -0.521572 0)
(-0.356678 -0.563465 0)
(-0.361509 -0.609268 0)
(-0.372348 -0.664865 0)
(-0.390819 -0.734857 0)
(-0.411641 -0.813761 0)
(-0.419396 -0.876738 0)
(-0.393264 -0.880648 0)
(-0.320287 -0.783049 0)
(-0.2094 -0.574471 0)
(-0.0949993 -0.305898 0)
(-0.0202855 -0.0815124 0)
(0.00123716 0.0157014 0)
(-7.81212e-05 0.202834 0)
(-0.0230028 0.395129 0)
(-0.0549987 0.504292 0)
(-0.0881846 0.591371 0)
(-0.119482 0.662751 0)
(-0.14698 0.711993 0)
(-0.169262 0.734859 0)
(-0.185774 0.731734 0)
(-0.196913 0.707009 0)
(-0.20389 0.667478 0)
(-0.208336 0.620308 0)
(-0.211782 0.571245 0)
(-0.215255 0.523653 0)
(-0.21917 0.478613 0)
(-0.223476 0.43575 0)
(-0.227924 0.394181 0)
(-0.232282 0.353146 0)
(-0.236428 0.31223 0)
(-0.240357 0.271307 0)
(-0.244126 0.230398 0)
(-0.247812 0.189554 0)
(-0.251487 0.148802 0)
(-0.255213 0.108137 0)
(-0.259021 0.0675295 0)
(-0.262906 0.0269248 0)
(-0.266896 -0.013735 0)
(-0.271077 -0.054487 0)
(-0.275455 -0.0953995 0)
(-0.279992 -0.136525 0)
(-0.284694 -0.177921 0)
(-0.289555 -0.219643 0)
(-0.294558 -0.261749 0)
(-0.29967 -0.304285 0)
(-0.304814 -0.347261 0)
(-0.309841 -0.390603 0)
(-0.314491 -0.434075 0)
(-0.318399 -0.477236 0)
(-0.321242 -0.519578 0)
(-0.323173 -0.561144 0)
(-0.325573 -0.603832 0)
(-0.331596 -0.652816 0)
(-0.345025 -0.715614 0)
(-0.365763 -0.795015 0)
(-0.383637 -0.876127 0)
(-0.377841 -0.918213 0)
(-0.327962 -0.866418 0)
(-0.231706 -0.686599 0)
(-0.116127 -0.407219 0)
(-0.0285753 -0.134875 0)
(0.00110058 0.00627752 0)
(0.00167754 0.212165 0)
(-0.0152545 0.42002 0)
(-0.0419169 0.534163 0)
(-0.0698043 0.620882 0)
(-0.09592 0.689509 0)
(-0.118629 0.734534 0)
(-0.136873 0.75239 0)
(-0.15036 0.744278 0)
(-0.159587 0.715374 0)
(-0.165679 0.672983 0)
(-0.170014 0.624363 0)
(-0.173774 0.574945 0)
(-0.177663 0.527573 0)
(-0.181877 0.482858 0)
(-0.186292 0.440161 0)
(-0.190688 0.398545 0)
(-0.194906 0.357328 0)
(-0.1989 0.316197 0)
(-0.202706 0.275103 0)
(-0.206398 0.234095 0)
(-0.210049 0.193223 0)
(-0.213723 0.152501 0)
(-0.217473 0.11191 0)
(-0.221331 0.07141 0)
(-0.225285 0.0309386 0)
(-0.229347 -0.00956996 0)
(-0.233622 -0.0501554 0)
(-0.238126 -0.0908963 0)
(-0.242802 -0.13185 0)
(-0.247656 -0.173077 0)
(-0.25268 -0.214639 0)
(-0.257864 -0.256602 0)
(-0.263189 -0.299032 0)
(-0.268611 -0.341986 0)
(-0.274044 -0.385469 0)
(-0.279307 -0.42937 0)
(-0.284092 -0.473358 0)
(-0.287975 -0.516845 0)
(-0.290638 -0.55926 0)
(-0.29248 -0.601056 0)
(-0.295565 -0.645609 0)
(-0.303935 -0.700592 0)
(-0.320982 -0.774411 0)
(-0.342613 -0.863324 0)
(-0.351592 -0.935123 0)
(-0.323488 -0.929344 0)
(-0.245474 -0.788934 0)
(-0.134681 -0.513595 0)
(-0.0379852 -0.199778 0)
(0.000949503 -0.00660493 0)
(0.0033951 0.216598 0)
(-0.0070151 0.438961 0)
(-0.0279451 0.558535 0)
(-0.0503671 0.645127 0)
(-0.0713663 0.711356 0)
(-0.0895404 0.752839 0)
(-0.104144 0.766637 0)
(-0.115064 0.754618 0)
(-0.122796 0.72256 0)
(-0.128289 0.678121 0)
(-0.132614 0.628546 0)
(-0.136621 0.57895 0)
(-0.14075 0.531746 0)
(-0.145063 0.487202 0)
(-0.149421 0.44452 0)
(-0.153659 0.402768 0)
(-0.157691 0.361346 0)
(-0.161518 0.320024 0)
(-0.165201 0.2788 0)
(-0.168815 0.237735 0)
(-0.172426 0.196871 0)
(-0.176086 0.156206 0)
(-0.179843 0.11571 0)
(-0.183734 0.0753362 0)
(-0.187744 0.0350192 0)
(-0.191862 -0.00531516 0)
(-0.196222 -0.0457116 0)
(-0.200858 -0.0862594 0)
(-0.205688 -0.127023 0)
(-0.210715 -0.168066 0)
(-0.215929 -0.209454 0)
(-0.221319 -0.251256 0)
(-0.226872 -0.293548 0)
(-0.232562 -0.336411 0)
(-0.238334 -0.379904 0)
(-0.244076 -0.424014 0)
(-0.249569 -0.468552 0)
(-0.25444 -0.513037 0)
(-0.258218 -0.556707 0)
(-0.260684 -0.599079 0)
(-0.262742 -0.641625 0)
(-0.267506 -0.690354 0)
(-0.279739 -0.755936 0)
(-0.300519 -0.844268 0)
(-0.318446 -0.935737 0)
(-0.308876 -0.971882 0)
(-0.250452 -0.877375 0)
(-0.149193 -0.619934 0)
(-0.047795 -0.274486 0)
(0.000647752 -0.0233818 0)
(0.00493331 0.215952 0)
(0.00141102 0.451622 0)
(-0.0134808 0.577154 0)
(-0.0303512 0.664097 0)
(-0.0463299 0.728461 0)
(-0.0601968 0.767211 0)
(-0.0714702 0.777972 0)
(-0.0801491 0.763112 0)
(-0.0866525 0.728836 0)
(-0.0916907 0.683013 0)
(-0.0960105 0.632827 0)
(-0.100156 0.583124 0)
(-0.104363 0.535996 0)
(-0.108618 0.491487 0)
(-0.112805 0.448719 0)
(-0.11682 0.406792 0)
(-0.120634 0.365176 0)
(-0.124283 0.323702 0)
(-0.127834 0.282393 0)
(-0.131356 0.241309 0)
(-0.134907 0.200482 0)
(-0.138532 0.159897 0)
(-0.142274 0.119515 0)
(-0.146177 0.0792888 0)
(-0.150228 0.0391525 0)
(-0.154385 -0.000974397 0)
(-0.158817 -0.0411554 0)
(-0.163588 -0.0814785 0)
(-0.168583 -0.122026 0)
(-0.173802 -0.162862 0)
(-0.179234 -0.204055 0)
(-0.184867 -0.245676 0)
(-0.190687 -0.287805 0)
(-0.196673 -0.330535 0)
(-0.202792 -0.373959 0)
(-0.208969 -0.41813 0)
(-0.215055 -0.462979 0)
(-0.22077 -0.50818 0)
(-0.225674 -0.553033 0)
(-0.229293 -0.596641 0)
(-0.231696 -0.639035 0)
(-0.234704 -0.6839 0)
(-0.242774 -0.741352 0)
(-0.26021 -0.823645 0)
(-0.28203 -0.924982 0)
(-0.286755 -0.995932 0)
(-0.247401 -0.949672 0)
(-0.158929 -0.721772 0)
(-0.0571839 -0.356273 0)
(-1.03388e-05 -0.0444696 0)
(0.00613921 0.210467 0)
(0.00966114 0.457558 0)
(0.00115425 0.589938 0)
(-0.0101531 0.677802 0)
(-0.0212129 0.740977 0)
(-0.0309496 0.777881 0)
(-0.0391073 0.786653 0)
(-0.0457471 0.769987 0)
(-0.0511627 0.734341 0)
(-0.0557932 0.687686 0)
(-0.06006 0.637134 0)
(-0.0642314 0.587336 0)
(-0.0683847 0.540185 0)
(-0.0724698 0.495602 0)
(-0.0764063 0.452686 0)
(-0.0801525 0.410577 0)
(-0.0837235 0.368799 0)
(-0.0871739 0.327217 0)
(-0.0905709 0.285864 0)
(-0.0939771 0.244795 0)
(-0.0974428 0.204032 0)