/*--------------------------------*- C++ -*----------------------------------*\
  =========                 |
  \\      /  F ield         | OpenFOAM: The Open Source CFD Toolbox
   \\    /   O peration     | Website:  https://openfoam.org
    \\  /    A nd           | Version:  7
     \\/     M anipulation  |
\*---------------------------------------------------------------------------*/
FoamFile
{
    version     2.0;
    format      ascii;
    class       volScalarField;
    location    "500";
    object      p;
}
// * * * * * * * * * * * * * * * * * * * * * * * * * * * * * * * * * * * * * //

dimensions      [0 2 -2 0 0 0 0];

internalField   nonuniform List<scalar> 
2500
(
1.18755e-07
7.09191e-05
-9.20732e-06
-0.000308287
-0.000782976
-0.00137084
-0.00203171
-0.00276111
-0.00358479
-0.00454345
-0.00567717
-0.00701584
-0.00857636
-0.0103584
-0.0123386
-0.0144625
-0.0166379
-0.0187329
-0.0205823
-0.0220037
-0.0228219
-0.0228972
-0.022154
-0.0206082
-0.0183856
-0.0157122
-0.0129093
-0.0103945
-0.00863018
-0.00805495
-0.00900302
-0.0116132
-0.015774
-0.0211906
-0.0274047
-0.0338544
-0.0400106
-0.0454711
-0.050004
-0.0535336
-0.0561091
-0.057865
-0.0589757
-0.059617
-0.0599409
-0.0600637
-0.0600632
-0.0599822
-0.059843
-0.0597039
-6.91107e-05
3.60151e-06
-8.03986e-05
-0.000377103
-0.000829754
-0.00137419
-0.00197531
-0.00263461
-0.00338073
-0.004254
-0.00529329
-0.00652852
-0.00798041
-0.00965669
-0.0115456
-0.0136104
-0.01578
-0.0179426
-0.0199452
-0.0216036
-0.0227252
-0.0231395
-0.0227325
-0.0214794
-0.019475
-0.016936
-0.0141993
-0.0117007
-0.00992125
-0.00931891
-0.0102436
-0.012856
-0.0170735
-0.0225484
-0.0287783
-0.0352149
-0.0413039
-0.0466032
-0.0508724
-0.0540833
-0.0563532
-0.0578632
-0.0588068
-0.0593566
-0.059649
-0.0597813
-0.0598156
-0.0597812
-0.0596798
-0.0595481
-1.90025e-05
4.95825e-05
-5.75464e-05
-0.000380269
-0.00083291
-0.00133971
-0.00187053
-0.00243824
-0.00308395
-0.00385523
-0.00479623
-0.00594735
-0.00734666
-0.00902867
-0.0110133
-0.0132895
-0.0157966
-0.0184127
-0.0209551
-0.0231969
-0.0248983
-0.0258452
-0.0258855
-0.0249677
-0.0231838
-0.0207609
-0.0180359
-0.0154425
-0.013474
-0.0126116
-0.0132384
-0.0155543
-0.019516
-0.0248231
-0.0309676
-0.0373283
-0.0433263
-0.0485188
-0.052624
-0.0555753
-0.0575016
-0.0586481
-0.0592685
-0.0595674
-0.0596896
-0.0597248
-0.0597199
-0.0596845
-0.0595887
-0.0594444
0.000228512
0.000266395
0.000101689
-0.000279869
-0.000755853
-0.00123732
-0.00170339
-0.00218626
-0.00274703
-0.00345683
-0.00438915
-0.00562359
-0.00724511
-0.00933076
-0.0119234
-0.0150026
-0.0184649
-0.0221217
-0.0257164
-0.0289582
-0.031562
-0.0332883
-0.033972
-0.0335491
-0.0320912
-0.0298008
-0.0269901
-0.0240802
-0.0215662
-0.0199557
-0.0196872
-0.0210421
-0.024071
-0.0285624
-0.034067
-0.0399819
-0.0456844
-0.0506542
-0.0545946
-0.0574149
-0.0591654
-0.0600569
-0.0603704
-0.060366
-0.0602282
-0.060067
-0.059933
-0.0598272
-0.0596972
-0.0595324
0.000708243
0.000677875
0.000418389
-4.40138e-05
-0.000555353
-0.00102937
-0.00146064
-0.00190925
-0.00247605
-0.00328314
-0.00446775
-0.00617788
-0.00855287
-0.0116882
-0.0155977
-0.0201903
-0.0252689
-0.0305521
-0.035709
-0.0403983
-0.0443056
-0.0471733
-0.0488231
-0.0491705
-0.0482449
-0.0461917
-0.0432758
-0.0398821
-0.0364827
-0.0335934
-0.0317072
-0.0312136
-0.0323159
-0.0349725
-0.0388845
-0.0435474
-0.048361
-0.0527637
-0.0563542
-0.0589441
-0.0605658
-0.061375
-0.0615628
-0.0613792
-0.0610433
-0.0606985
-0.0604188
-0.0602173
-0.0600411
-0.0598642
0.00146397
0.00132961
0.000949932
0.000398136
-0.000168163
-0.000674858
-0.00114679
-0.001697
-0.00249496
-0.00374709
-0.00567923
-0.00850544
-0.0123812
-0.017357
-0.0233521
-0.030158
-0.0374645
-0.0448999
-0.0520706
-0.0585969
-0.0641418
-0.068435
-0.0712888
-0.0726046
-0.0723805
-0.0707007
-0.0677627
-0.063887
-0.0594812
-0.0550209
-0.0510092
-0.0479181
-0.0461147
-0.0457867
-0.0468894
-0.0491405
-0.0520775
-0.0551704
-0.0579513
-0.0601093
-0.0615228
-0.0622397
-0.0624235
-0.062237
-0.0618516
-0.0614265
-0.0610611
-0.0607929
-0.0605877
-0.0604163
0.00253405
0.00227089
0.00176184
0.00111017
0.000453043
-0.000166612
-0.000837182
-0.00175462
-0.00318866
-0.00544964
-0.00883942
-0.0135868
-0.019788
-0.0273752
-0.0361228
-0.0456817
-0.0556273
-0.0655065
-0.0748775
-0.0833409
-0.0905624
-0.0962866
-0.100342
-0.102637
-0.103168
-0.101985
-0.099214
-0.0950887
-0.0899115
-0.0840551
-0.0779513
-0.0720664
-0.0668589
-0.062719
-0.0598998
-0.0584595
-0.0582402
-0.0589037
-0.0600221
-0.0611928
-0.062127
-0.0626844
-0.0628634
-0.0627516
-0.062453
-0.0620788
-0.0617287
-0.0614602
-0.0612646
-0.0611196
0.00392471
0.00352545
0.00288622
0.00211235
0.00129671
0.000411256
-0.000729635
-0.00243545
-0.00509145
-0.00909155
-0.0147507
-0.022224
-0.0314634
-0.0422232
-0.0541034
-0.0666104
-0.0792171
-0.0914144
-0.102748
-0.112841
-0.121409
-0.128251
-0.133245
-0.13633
-0.137522
-0.136883
-0.134484
-0.130471
-0.125026
-0.11838
-0.11082
-0.102696
-0.0944207
-0.0864509
-0.0792473
-0.073211
-0.0686067
-0.0654987
-0.06373
-0.0629683
-0.062809
-0.0628908
-0.0629685
-0.0629351
-0.0627866
-0.0625644
-0.0623311
-0.0621406
-0.0620007
-0.0619002
0.00558091
0.00505252
0.00427811
0.00333946
0.00224057
0.000842824
-0.00116629
-0.00422293
-0.00880424
-0.0153178
-0.0239919
-0.0348106
-0.047511
-0.0616343
-0.0766026
-0.0917993
-0.106637
-0.120605
-0.133297
-0.144414
-0.153762
-0.16123
-0.166763
-0.17034
-0.172007
-0.171862
-0.169947
-0.166342
-0.161132
-0.154416
-0.146321
-0.137018
-0.126751
-0.115868
-0.104834
-0.0942179
-0.08464
-0.0766596
-0.0706384
-0.0666277
-0.0643498
-0.0633069
-0.0629654
-0.0629106
-0.0629117
-0.0628927
-0.0628485
-0.062802
-0.0627572
-0.0627124
0.00735186
0.00670855
0.00578779
0.00460228
0.00302274
0.000769914
-0.00260845
-0.00765298
-0.0148624
-0.0245523
-0.036757
-0.051209
-0.0673911
-0.0846322
-0.102211
-0.11945
-0.135776
-0.15075
-0.164073
-0.175566
-0.185143
-0.192784
-0.198499
-0.202303
-0.204261
-0.204497
-0.203048
-0.199955
-0.195251
-0.188954
-0.181074
-0.171624
-0.160652
-0.14829
-0.134809
-0.120687
-0.106633
-0.0935373
-0.0823226
-0.0736962
-0.0679087
-0.0646604
-0.0632508
-0.062889
-0.0629642
-0.0631459
-0.0633263
-0.0634645
-0.0635398
-0.0635546
0.00897923
0.00824
0.0071373
0.00557182
0.00324593
-0.000273626
-0.00556202
-0.0132006
-0.0236055
-0.0368873
-0.0527984
-0.0707768
-0.0900566
-0.109802
-0.129228
-0.147687
-0.164703
-0.179976
-0.193346
-0.204754
-0.214211
-0.221763
-0.227459
-0.231339
-0.233467
-0.233969
-0.23288
-0.230229
-0.226034
-0.220287
-0.21295
-0.203952
-0.193209
-0.180652
-0.166296
-0.150339
-0.133274
-0.115966
-0.0996243
-0.0855852
-0.0749202
-0.0680241
-0.0644544
-0.063185
-0.063112
-0.063455
-0.0638538
-0.0641895
-0.0643947
-0.0644697
0.0101094
0.009279
0.00792718
0.00580445
0.00242575
-0.00278518
-0.0104754
-0.0211723
-0.0350966
-0.0520612
-0.0714892
-0.0925311
-0.114229
-0.135674
-0.156123
-0.175047
-0.192134
-0.207241
-0.220341
-0.231469
-0.240695
-0.248094
-0.253729
-0.257642
-0.259886
-0.260571
-0.259722
-0.257371
-0.253538
-0.248221
-0.241387
-0.232955
-0.222801
-0.210757
-0.196653
-0.180399
-0.162115
-0.142314
-0.122046
-0.102888
-0.0866345
-0.0747009
-0.0675059
-0.0642878
-0.0635709
-0.0639366
-0.0645318
-0.0650596
-0.0653967
-0.0655349
0.0103135
0.00937777
0.00768571
0.00480703
7.38369e-05
-0.00719602
-0.017644
-0.0316387
-0.0491111
-0.0695229
-0.0919719
-0.11538
-0.138695
-0.161047
-0.181827
-0.200688
-0.217494
-0.232243
-0.245001
-0.255857
-0.264898
-0.272199
-0.277817
-0.281784
-0.284132
-0.284954
-0.28426
-0.282082
-0.278448
-0.273369
-0.266835
-0.258799
-0.249161
-0.237756
-0.224357
-0.208708
-0.190615
-0.170131
-0.147806
-0.124921
-0.103491
-0.0858056
-0.0735439
-0.0669321
-0.0646555
-0.0646995
-0.0654434
-0.0661552
-0.0666326
-0.066846
0.00914743
0.00808092
0.00594699
0.00212547
-0.00420772
-0.0137833
-0.027149
-0.0444233
-0.0651881
-0.0885501
-0.113335
-0.138332
-0.162508
-0.185129
-0.20578
-0.224304
-0.240716
-0.255108
-0.267596
-0.27828
-0.287237
-0.294526
-0.300187
-0.304237
-0.306692
-0.307628
-0.307043
-0.304967
-0.301426
-0.296441
-0.290021
-0.282155
-0.272793
-0.261828
-0.249075
-0.234258
-0.217044
-0.197144
-0.174549
-0.149888
-0.124762
-0.101728
-0.0835789
-0.0720668
-0.0668839
-0.0659093
-0.0666395
-0.0675434
-0.0681853
-0.0684991
0.00623549
0.00500584
0.00233803
-0.00256751
-0.0106478
-0.0226157
-0.0388443
-0.0591398
-0.0827204
-0.108379
-0.134757
-0.160622
-0.185058
-0.207525
-0.227811
-0.245922
-0.261972
-0.276102
-0.288431
-0.299046
-0.308004
-0.31534
-0.321079
-0.325226
-0.327785
-0.328821
-0.328328
-0.326327
-0.32284
-0.317887
-0.311485
-0.303644
-0.294353
-0.283571
-0.271192
-0.25702
-0.24074
-0.221939
-0.200232
-0.175573
-0.148748
-0.12183
-0.0980437
-0.0806156
-0.0709948
-0.0678765
-0.0681926
-0.0692852
-0.0701275
-0.0705841
0.00133976
-8.35928e-05
-0.00334863
-0.00940916
-0.0192631
-0.033542
-0.052385
-0.0752611
-0.101051
-0.128307
-0.155591
-0.181743
-0.206029
-0.228116
-0.247966
-0.2657
-0.28148
-0.29545
-0.307712
-0.318325
-0.327323
-0.334726
-0.340546
-0.344782
-0.347432
-0.348554
-0.348144
-0.346215
-0.342781
-0.337859
-0.331462
-0.323603
-0.314292
-0.303527
-0.291277
-0.277447
-0.26183
-0.244067
-0.223655
-0.20011
-0.173395
-0.144605
-0.116508
-0.0931138
-0.0778138
-0.0711244
-0.0702672
-0.0714461
-0.0725362
-0.0731916
-0.00559152
-0.00722952
-0.0111145
-0.0183215
-0.0298564
-0.0462197
-0.0672857
-0.0921973
-0.119554
-0.147758
-0.175382
-0.201411
-0.225309
-0.246933
-0.266372
-0.283805
-0.299402
-0.313287
-0.32553
-0.336166
-0.345207
-0.352665
-0.358548
-0.362853
-0.365574
-0.366766
-0.366432
-0.364574
-0.361205
-0.356333
-0.349967
-0.342115
-0.332787
-0.321996
-0.309752
-0.296036
-0.280765
-0.263718
-0.244472
-0.222413
-0.196959
-0.168182
-0.137745
-0.109417
-0.0879726
-0.0763274
-0.0731813
-0.0741284
-0.075525
-0.0764278
-0.0144096
-0.016269
-0.0207536
-0.0290249
-0.0420504
-0.0601688
-0.0829878
-0.109363
-0.137685
-0.166294
-0.193842
-0.219492
-0.242898
-0.264061
-0.283148
-0.300354
-0.315829
-0.329665
-0.341901
-0.352552
-0.36162
-0.36911
-0.375031
-0.379382
-0.382157
-0.383403
-0.383133
-0.381344
-0.378044
-0.373239
-0.366934
-0.35913
-0.349831
-0.339048
-0.3268
-0.313107
-0.297971
-0.281313
-0.262881
-0.242159
-0.218383
-0.190902
-0.160112
-0.128664
-0.101629
-0.0841277
-0.0773935
-0.0774925
-0.0792173
-0.0804046
-0.0247861
-0.0268579
-0.0318842
-0.041082
-0.0553431
-0.0748352
-0.0989209
-0.126224
-0.155003
-0.183603
-0.210804
-0.235943
-0.258834
-0.279577
-0.298373
-0.315404
-0.330789
-0.344584
-0.356804
-0.367451
-0.376523
-0.384022
-0.389961
-0.39434
-0.397153
-0.398441
-0.398224
-0.396496
-0.393263
-0.388531
-0.382302
-0.374576
-0.365352
-0.354632
-0.342428
-0.328769
-0.313693
-0.297219
-0.279263
-0.259511
-0.237297
-0.211672
-0.18203
-0.149509
-0.118337
-0.0949011
-0.0834079
-0.0817681
-0.0837185
-0.0852344
-0.0362593
-0.0385198
-0.0440032
-0.0539567
-0.0691703
-0.0896492
-0.114549
-0.142323
-0.171165
-0.199475
-0.226173
-0.250755
-0.273155
-0.29353
-0.312084
-0.328971
-0.344274
-0.35802
-0.370209
-0.380833
-0.389889
-0.397382
-0.403324
-0.407719
-0.410559
-0.411877
-0.411705
-0.410028
-0.406856
-0.402194
-0.396045
-0.388409
-0.379283
-0.368668
-0.356565
-0.342995
-0.327999
-0.311637
-0.293943
-0.274805
-0.253792
-0.23001
-0.202327
-0.170492
-0.13713
-0.108591
-0.0916513
-0.0872475
-0.0891192
-0.0910365
-0.0482938
-0.0507065
-0.0565475
-0.0670756
-0.0829623
-0.104072
-0.1294
-0.157288
-0.185915
-0.213766
-0.239895
-0.263928
-0.285881
-0.305937
-0.324283
-0.341041
-0.35626
-0.369946
-0.382088
-0.392676
-0.401705
-0.409182
-0.41512
-0.419522
-0.422381
-0.423722
-0.423586
-0.421952
-0.418832
-0.414232
-0.408157
-0.400609
-0.39159
-0.381097
-0.369132
-0.355703
-0.340841
-0.32461
-0.307096
-0.288334
-0.268145
-0.245888
-0.220357
-0.190375
-0.156768
-0.124671
-0.102321
-0.0942096
-0.0955112
-0.0979225
-0.0603405
-0.0628582
-0.0689531
-0.0798814
-0.0961879
-0.117626
-0.143076
-0.170821
-0.199062
-0.226373
-0.25193
-0.275454
-0.297012
-0.31679
-0.334952
-0.351586
-0.366718
-0.380335
-0.392422
-0.402966
-0.411965
-0.419422
-0.42535
-0.429757
-0.432631
-0.433986
-0.433879
-0.43228
-0.429203
-0.424655
-0.418644
-0.411176
-0.402256
-0.391887
-0.380071
-0.366813
-0.352133
-0.336082
-0.318753
-0.300261
-0.28062
-0.259496
-0.23591
-0.20831
-0.176019
-0.142245
-0.115269
-0.102845
-0.103002
-0.105949
-0.0718857
-0.0744575
-0.0807011
-0.0918729
-0.108384
-0.129909
-0.155259
-0.182696
-0.210462
-0.237221
-0.26224
-0.285312
-0.306527
-0.326063
-0.344059
-0.360576
-0.375618
-0.389165
-0.401194
-0.411695
-0.420663
-0.428101
-0.43402
-0.438428
-0.441314
-0.442678
-0.442595
-0.441024
-0.43798
-0.433473
-0.427514
-0.420112
-0.411278
-0.401021
-0.389347
-0.376265
-0.36179
-0.34596
-0.328857
-0.310618
-0.291373
-0.271057
-0.249042
-0.22385
-0.193864
-0.160224
-0.129984
-0.113167
-0.111649
-0.115056
-0.0825118
-0.0850436
-0.0913526
-0.10263
-0.11917
-0.140602
-0.165701
-0.19274
-0.220009
-0.246246
-0.27079
-0.293472
-0.314396
-0.333723
-0.35157
-0.367977
-0.382934
-0.396414
-0.408392
-0.418855
-0.427798
-0.435221
-0.441133
-0.445541
-0.448437
-0.449806
-0.449741
-0.44819
-0.44517
-0.440693
-0.434771
-0.42742
-0.418653
-0.408487
-0.396937
-0.384017
-0.369745
-0.354154
-0.337311
-0.319347
-0.300444
-0.280721
-0.259901
-0.236846
-0.209589
-0.177523
-0.145658
-0.124934
-0.121353
-0.125004
-0.0919025
-0.0942406
-0.100548
-0.111824
-0.128256
-0.149463
-0.17422
-0.200826
-0.22762
-0.253397
-0.277538
-0.2999
-0.320582
-0.339733
-0.357451
-0.37376
-0.388643
-0.402065
-0.414002
-0.424438
-0.433365
-0.440781
-0.446691
-0.451101
-0.454005
-0.455382
-0.455326
-0.453789
-0.450782
-0.446321
-0.440421
-0.433099
-0.424377
-0.414278
-0.402824
-0.39004
-0.37595
-0.360587
-0.344015
-0.326348
-0.307781
-0.288534
-0.268614
-0.247309
-0.22277
-0.193212
-0.161324
-0.137619
-0.131774
-0.135372
-0.09981
-0.10182
-0.108018
-0.119216
-0.135438
-0.156326
-0.180689
-0.206865
-0.233235
-0.258628
-0.282449
-0.304557
-0.325047
-0.344056
-0.361667
-0.377896
-0.39272
-0.406102
-0.418014
-0.428437
-0.437362
-0.444782
-0.450697
-0.455114
-0.458026
-0.459414
-0.459364
-0.457834
-0.45483
-0.450371
-0.444473
-0.437158
-0.428453
-0.418389
-0.406996
-0.39431
-0.380363
-0.365199
-0.348878
-0.33151
-0.313281
-0.294458
-0.275236
-0.255304
-0.233202
-0.206586
-0.176002
-0.150475
-0.14237
-0.145624
-0.106069
-0.107662
-0.113609
-0.124654
-0.140598
-0.161107
-0.185052
-0.210817
-0.236822
-0.261912
-0.285491
-0.307412
-0.327757
-0.346656
-0.364185
-0.380357
-0.395144
-0.408507
-0.420414
-0.430843
-0.439781
-0.447219
-0.453153
-0.457584
-0.460508
-0.461907
-0.46186
-0.460335
-0.457324
-0.452851
-0.446936
-0.439604
-0.430885
-0.420818
-0.409445
-0.396809
-0.382958
-0.367942
-0.35183
-0.33473
-0.316825
-0.298393
-0.279741
-0.260872
-0.240811
-0.217174
-0.188826
-0.162659
-0.152509
-0.15519
-0.110612
-0.111732
-0.11728
-0.128078
-0.143684
-0.163763
-0.187265
-0.212638
-0.238335
-0.263203
-0.286627
-0.308437
-0.328698
-0.347529
-0.365007
-0.381146
-0.39592
-0.409287
-0.421212
-0.431668
-0.440638
-0.448108
-0.454069
-0.458518
-0.461449
-0.462853
-0.462802
-0.461281
-0.458254
-0.453754
-0.447803
-0.440428
-0.431664
-0.421558
-0.41016
-0.397525
-0.38371
-0.368779
-0.352811
-0.335924
-0.318299
-0.30022
-0.28205
-0.264009
-0.245583
-0.224694
-0.199108
-0.173357
-0.161559
-0.16353
-0.113468
-0.114084
-0.119098
-0.129536
-0.14474
-0.164334
-0.187356
-0.212332
-0.237751
-0.262453
-0.28579
-0.307553
-0.327783
-0.346592
-0.364058
-0.3802
-0.394994
-0.408399
-0.420376
-0.430893
-0.439928
-0.447462
-0.453482
-0.457979
-0.460948
-0.462374
-0.462299
-0.460747
-0.457671
-0.453106
-0.447077
-0.43962
-0.430775
-0.42059
-0.409121
-0.396432
-0.38259
-0.367673
-0.351775
-0.335022
-0.317606
-0.299817
-0.28205
-0.264661
-0.24751
-0.229
-0.206356
-0.181857
-0.168952
-0.170164
-0.114745
-0.114859
-0.119218
-0.129158
-0.143873
-0.162913
-0.1854
-0.209951
-0.235097
-0.259668
-0.282969
-0.304742
-0.324994
-0.343825
-0.361316
-0.377494
-0.39234
-0.405813
-0.417873
-0.428481
-0.437608
-0.445231
-0.451331
-0.455894
-0.458914
-0.460379
-0.460306
-0.458735
-0.455608
-0.450967
-0.444843
-0.437267
-0.428285
-0.417953
-0.406337
-0.393514
-0.379569
-0.364587
-0.348671
-0.331961
-0.314663
-0.297079
-0.279627
-0.262745
-0.246572
-0.230022
-0.210247
-0.187591
-0.17419
-0.174674
-0.114619
-0.114268
-0.117875
-0.127144
-0.141249
-0.159641
-0.181508
-0.205569
-0.230413
-0.254858
-0.278155
-0.299986
-0.320311
-0.339212
-0.35677
-0.373021
-0.387954
-0.401533
-0.41371
-0.424444
-0.433698
-0.441441
-0.447649
-0.452302
-0.45539
-0.4569
-0.456834
-0.455242
-0.452058
-0.447324
-0.441079
-0.433355
-0.424201
-0.41368
-0.401863
-0.388834
-0.374686
-0.359521
-0.343467
-0.326685
-0.309396
-0.291911
-0.274672
-0.258169
-0.242734
-0.227735
-0.21059
-0.190127
-0.176847
-0.176695
-0.113318
-0.112573
-0.115367
-0.123772
-0.137098
-0.154707
-0.175829
-0.199291
-0.223753
-0.248035
-0.271332
-0.29325
-0.313693
-0.332713
-0.350386
-0.366756
-0.38182
-0.395545
-0.407883
-0.418785
-0.428206
-0.436107
-0.442456
-0.447228
-0.450404
-0.451972
-0.45192
-0.450307
-0.44706
-0.442218
-0.435827
-0.427921
-0.418551
-0.407784
-0.3957
-0.382388
-0.367952
-0.352508
-0.336197
-0.319199
-0.301765
-0.284243
-0.267097
-0.250844
-0.235947
-0.222131
-0.207287
-0.189157
-0.176555
-0.175901
-0.111107
-0.110066
-0.112032
-0.119376
-0.131707
-0.148354
-0.16856
-0.191258
-0.215201
-0.239228
-0.262485
-0.284495
-0.305091
-0.324279
-0.342122
-0.358663
-0.373909
-0.387831
-0.400378
-0.411495
-0.421129
-0.429231
-0.435761
-0.440685
-0.443978
-0.445623
-0.445603
-0.443968
-0.440656
-0.435696
-0.429135
-0.421014
-0.411384
-0.400315
-0.387892
-0.374214
-0.35939
-0.343551
-0.326856
-0.309507
-0.291784
-0.274066
-0.256856
-0.240709
-0.226169
-0.213209
-0.200298
-0.184472
-0.172991
-0.171996
-0.108262
-0.107039
-0.108215
-0.114331
-0.125418
-0.14087
-0.159938
-0.18165
-0.204871
-0.228488
-0.25161
-0.27368
-0.294445
-0.313849
-0.331921
-0.348699
-0.36419
-0.378368
-0.391182
-0.402571
-0.412471
-0.420825
-0.427582
-0.432699
-0.436144
-0.437892
-0.437925
-0.436275
-0.432901
-0.427815
-0.421066
-0.412697
-0.402763
-0.391335
-0.378503
-0.364368
-0.349052
-0.332696
-0.315478
-0.297625
-0.279452
-0.261377
-0.243947
-0.227755
-0.213394
-0.200992
-0.189631
-0.175954
-0.165867
-0.164697
-0.105051
-0.103759
-0.104233
-0.109019
-0.11861
-0.132586
-0.150239
-0.170686
-0.192915
-0.215891
-0.238719
-0.26077
-0.281693
-0.30135
-0.319718
-0.336809
-0.352624
-0.367135
-0.380288
-0.392016
-0.402247
-0.410912
-0.417951
-0.42331
-0.426948
-0.428833
-0.428942
-0.427294
-0.423864
-0.418649
-0.411695
-0.403052
-0.392772
-0.380928
-0.367611
-0.35293
-0.337012
-0.320011
-0.302125
-0.28361
-0.264816
-0.246211
-0.228394
-0.212005
-0.197678
-0.18555
-0.175343
-0.16356
-0.154937
-0.15373
-0.101708
-0.100444
-0.100349
-0.103793
-0.111676
-0.123868
-0.139775
-0.158616
-0.179514
-0.201546
-0.223847
-0.245736
-0.266765
-0.286694
-0.305424
-0.32292
-0.339158
-0.354098
-0.367682
-0.379834
-0.390475
-0.399524
-0.406908
-0.412567
-0.416447
-0.41851
-0.418728
-0.417105
-0.413631
-0.408288
-0.401119
-0.392175
-0.381511
-0.369196
-0.355323
-0.340003
-0.323371
-0.305596
-0.286894
-0.267555
-0.247971
-0.228663
-0.210284
-0.193531
-0.179092
-0.167029
-0.157565
-0.14733
-0.140011
-0.138838
-0.0984203
-0.0972511
-0.09675
-0.0989449
-0.104993
-0.115101
-0.128887
-0.145723
-0.164886
-0.185594
-0.207056
-0.228569
-0.249598
-0.269789
-0.288941
-0.306941
-0.32372
-0.339212
-0.353344
-0.366029
-0.377176
-0.386696
-0.394506
-0.400532
-0.404714
-0.407006
-0.407372
-0.405803
-0.402304
-0.396839
-0.38945
-0.380186
-0.369101
-0.356263
-0.341763
-0.325716
-0.308262
-0.289585
-0.269924
-0.249605
-0.229068
-0.208889
-0.189785
-0.172504
-0.157772
-0.145635
-0.136491
-0.127386
-0.120987
-0.119789
-0.095316
-0.0942825
-0.0935434
-0.0946748
-0.0988792
-0.106662
-0.117937
-0.132315
-0.149276
-0.168214
-0.18845
-0.209299
-0.230157
-0.250555
-0.270164
-0.28877
-0.306226
-0.322418
-0.337242
-0.350594
-0.362371
-0.372471
-0.380801
-0.387279
-0.391834
-0.394413
-0.394976
-0.3935
-0.39
-0.384427
-0.376817
-0.36722
-0.355685
-0.342277
-0.327087
-0.31023
-0.291855
-0.27216
-0.251411
-0.229971
-0.208333
-0.187133
-0.167151
-0.149182
-0.13398
-0.1216
-0.112385
-0.10391
-0.0978519
-0.0963459
-0.092473
-0.0915937
-0.0907693
-0.0910821
-0.0935617
-0.0988766
-0.107276
-0.118712
-0.132954
-0.149619
-0.16818
-0.188007
-0.208458
-0.228951
-0.249021
-0.268319
-0.286591
-0.303648
-0.319336
-0.33352
-0.346077
-0.35689
-0.365856
-0.372885
-0.377899
-0.380837
-0.381654
-0.38032
-0.376848
-0.37119
-0.363369
-0.353431
-0.341425
-0.327412
-0.31148
-0.293747
-0.27437
-0.253562
-0.231619
-0.208946
-0.186087
-0.163743
-0.142749
-0.123942
-0.108091
-0.0952113
-0.0855994
-0.0771277
-0.0706569
-0.0681665
-0.0899238
-0.089207
-0.0884198
-0.0881715
-0.089141
-0.0919693
-0.0972016
-0.105223
-0.116202
-0.130056
-0.146453
-0.164855
-0.184605
-0.205026
-0.225509
-0.245552
-0.264767
-0.282858
-0.299597
-0.314799
-0.328309
-0.339993
-0.349734
-0.357433
-0.363007
-0.36639
-0.367531
-0.366397
-0.362992
-0.35728
-0.349267
-0.338994
-0.326509
-0.311872
-0.295169
-0.27652
-0.256091
-0.234114
-0.210913
-0.186935
-0.162777
-0.139197
-0.117079
-0.0972833
-0.0805741
-0.0668866
-0.0565631
-0.0473056
-0.0396027
-0.0348498
-0.0876596
-0.0871183
-0.0864583
-0.085872
-0.0855784
-0.0860067
-0.0878932
-0.092096
-0.0992942
-0.109804
-0.123545
-0.1401
-0.158824
-0.178959
-0.199757
-0.220553
-0.240803
-0.260077
-0.278048
-0.29446
-0.309111
-0.32184
-0.332512
-0.341018
-0.347268
-0.351194
-0.352742
-0.351877
-0.348593
-0.34287
-0.334698
-0.324113
-0.311166
-0.295914
-0.278444
-0.258878
-0.237395
-0.214245
-0.18978
-0.164484
-0.139001
-0.114128
-0.0907798
-0.0698239
-0.0519957
-0.0371523
-0.0257425
-0.0147711
-0.00532655
0.00366407
-0.085624
-0.0852882
-0.0848251
-0.0840517
-0.0826951
-0.080859
-0.0793488
-0.0794655
-0.0824686
-0.0891688
-0.0998077
-0.114126
-0.131503
-0.151119
-0.172093
-0.193599
-0.214923
-0.235487
-0.254838
-0.272633
-0.288605
-0.302552
-0.314316
-0.323773
-0.330827
-0.335406
-0.337455
-0.336939
-0.333845
-0.328171
-0.319893
-0.309047
-0.295684
-0.279865
-0.261678
-0.241254
-0.21878
-0.194525
-0.168864
-0.14231
-0.115529
-0.089336
-0.064638
-0.0422781
-0.0229449
-0.00645375
0.00662985
0.0203792
0.031331
0.047188
-0.0836962
-0.0836207
-0.0834125
-0.0825072
-0.080173
-0.0761867
-0.0713416
-0.0672996
-0.0658934
-0.0684837
-0.0756969
-0.087471
-0.103235
-0.122114
-0.143109
-0.165236
-0.187616
-0.209511
-0.230335
-0.249637
-0.267073
-0.282387
-0.295388
-0.305933
-0.313916
-0.31926
-0.321912
-0.321836
-0.319018
-0.313468
-0.305164
-0.294139
-0.280448
-0.264159
-0.245366
-0.224209
-0.200888
-0.175682
-0.148981
-0.121302
-0.0933071
-0.0657798
-0.0395715
-0.0154461
0.00599647
0.0249984
0.0409633
0.0589469
0.0713145
0.0978084
-0.0816824
-0.0819336
-0.0820129
-0.0809204
-0.0775526
-0.0714674
-0.0634405
-0.055397
-0.0496561
-0.0481063
-0.0517852
-0.0608655
-0.0748515
-0.092831
-0.1137
-0.136334
-0.159695
-0.182895
-0.205207
-0.226068
-0.245046
-0.261823
-0.276165
-0.287903
-0.29692
-0.303131
-0.306484
-0.306945
-0.304501
-0.299166
-0.290942
-0.279855
-0.265969
-0.249362
-0.230141
-0.208453
-0.184508
-0.158591
-0.131083
-0.102479
-0.0733853
-0.0445013
-0.016557
0.00983138
0.0342298
0.0570673
0.0779517
0.102726
0.119755
0.162841
-0.0793701
-0.0799759
-0.0803396
-0.0788955
-0.0742948
-0.0660884
-0.0551205
-0.0434779
-0.0338162
-0.0284469
-0.028785
-0.0352494
-0.0474465
-0.064454
-0.0850881
-0.108105
-0.13233
-0.156735
-0.180467
-0.202848
-0.22336
-0.241616
-0.257335
-0.270318
-0.28043
-0.28758
-0.291712
-0.292799
-0.290831
-0.28582
-0.277796
-0.266793
-0.252886
-0.236167
-0.216753
-0.1948
-0.170519
-0.144186
-0.116149
-0.0868374
-0.0567535
-0.026441
0.00356766
0.0328867
0.0613354
0.0896629
0.117875
0.153062
0.182866
0.247599
-0.0768643
-0.0777102
-0.0782028
-0.0761524
-0.0701015
-0.0596793
-0.0460261
-0.0313919
-0.018541
-0.0100288
-0.00755535
-0.0117534
-0.0223426
-0.0384222
-0.0587668
-0.0820486
-0.106987
-0.132438
-0.157438
-0.18121
-0.203152
-0.222812
-0.23986
-0.254065
-0.265273
-0.273382
-0.278337
-0.280113
-0.278708
-0.274142
-0.266451
-0.255684
-0.241936
-0.225322
-0.205968
-0.184029
-0.159704
-0.133239
-0.104923
-0.0750828
-0.0440587
-0.0121651
0.0203716
0.0535458
0.0876026
0.123734
0.162253
0.211919
0.259447
0.338059
-0.0754501
-0.0761439
-0.0762649
-0.0730346
-0.0651535
-0.0525087
-0.0364469
-0.0194763
-0.00437008
0.00637576
0.0108692
0.00833355
-0.00102759
-0.016352
-0.0364162
-0.059855
-0.0853218
-0.111593
-0.137622
-0.162553
-0.185713
-0.206593
-0.224821
-0.240134
-0.252356
-0.261378
-0.26714
-0.26962
-0.268825
-0.264789
-0.257566
-0.247198
-0.23377
-0.217424
-0.198308
-0.176579
-0.152409
-0.125994
-0.0975469
-0.067263
-0.0352812
-0.00160644
0.0339943
0.0721893
0.114147
0.162198
0.217414
0.288557
0.348957
0.423966
-0.0796292
-0.0789236
-0.077306
-0.0716904
-0.0611438
-0.0459149
-0.0276092
-0.0088268
0.00765708
0.0196353
0.0253482
0.0238003
0.0151819
0.000332854
-0.0195478
-0.0430927
-0.0689277
-0.0957853
-0.122567
-0.148362
-0.172449
-0.194276
-0.213433
-0.229634
-0.242686
-0.252469
-0.25892
-0.262019
-0.261778
-0.258238
-0.251461
-0.241535
-0.228536
-0.212545
-0.193715
-0.172223
-0.14823
-0.121886
-0.0933199
-0.0625924
-0.0296163
0.00597528
0.0450332
0.0892736
0.141617
0.20729
0.291092
0.403045
0.495358
0.602981
-0.103057
-0.0952281
-0.0867727
-0.0759799
-0.0616194
-0.0433006
-0.0226687
-0.00229946
0.0153638
0.0281141
0.034268
0.0331429
0.0249328
0.0104288
-0.00921515
-0.0326662
-0.0585653
-0.085641
-0.112775
-0.139029
-0.16365
-0.186054
-0.205806
-0.222597
-0.236218
-0.24654
-0.253491
-0.257052
-0.257233
-0.254078
-0.247651
-0.238037
-0.225333
-0.209646
-0.1911
-0.169832
-0.145988
-0.11969
-0.0909988
-0.05985
-0.025939
0.0114802
0.0539248
0.104318
0.167791
0.253844
0.375156
0.555256
0.76729
1.10751
-0.189883
-0.112119
-0.0805228
-0.0712908
-0.0580174
-0.0386587
-0.0169868
0.00398713
0.0217586
0.0341577
0.0397845
0.0381595
0.0295573
0.014798
-0.00497186
-0.0284557
-0.0543403
-0.0813931
-0.108522
-0.134805
-0.159491
-0.181996
-0.20188
-0.218826
-0.232619
-0.243121
-0.250261
-0.254011
-0.254382
-0.251416
-0.245176
-0.235746
-0.223224
-0.207717
-0.189344
-0.168234
-0.144519
-0.118291
-0.0895564
-0.0581513
-0.0236073
0.0151019
0.059971
0.114746
0.185988
0.286049
0.434823
0.679947
1.07903
1.82826
)
;

boundaryField
{
    movingWall
    {
        type            zeroGradient;
    }
    fixedWalls
    {
        type            zeroGradient;
    }
    frontAndBack
    {
        type            empty;
    }
}


// ************************************************************************* //
