/*--------------------------------*- C++ -*----------------------------------*\
  =========                 |
  \\      /  F ield         | OpenFOAM: The Open Source CFD Toolbox
   \\    /   O peration     | Website:  https://openfoam.org
    \\  /    A nd           | Version:  7
     \\/     M anipulation  |
\*---------------------------------------------------------------------------*/
FoamFile
{
    version     2.0;
    format      ascii;
    class       surfaceScalarField;
    location    "500";
    object      phi;
}
// * * * * * * * * * * * * * * * * * * * * * * * * * * * * * * * * * * * * * //

dimensions      [0 3 -1 0 0 0 0];

internalField   nonuniform List<scalar> 
4900
(
1.70201e-06
-1.70458e-06
6.22797e-06
-4.52583e-06
1.17213e-05
-5.49395e-06
1.6507e-05
-4.7863e-06
1.97532e-05
-3.24689e-06
2.13909e-05
-1.63818e-06
2.1768e-05
-3.77456e-07
2.12607e-05
5.06909e-07
2.00117e-05
1.2486e-06
1.78564e-05
2.15502e-06
1.44009e-05
3.45521e-06
9.15777e-06
5.24279e-06
1.6355e-06
7.52198e-06
-8.61846e-06
1.02537e-05
-2.1954e-05
1.33353e-05
-3.85342e-05
1.658e-05
-5.82634e-05
1.9729e-05
-8.07061e-05
2.24425e-05
-0.000105024
2.43173e-05
-0.000129958
2.49347e-05
-0.000153882
2.39238e-05
-0.000174908
2.10256e-05
-0.000191053
1.61444e-05
-0.00020044
9.38673e-06
-0.000201546
1.10621e-06
-0.000193428
-8.11775e-06
-0.00017584
-1.75887e-05
-0.000149299
-2.65407e-05
-0.000115098
-3.42012e-05
-7.52603e-05
-3.98377e-05
-3.24366e-05
-4.28237e-05
1.02582e-05
-4.26949e-05
4.95652e-05
-3.93072e-05
8.26288e-05
-3.30637e-05
0.000107269
-2.46404e-05
0.000122217
-1.49475e-05
0.000127351
-5.13504e-06
0.000123751
3.60078e-06
0.000113409
1.03416e-05
9.87179e-05
1.4691e-05
8.20219e-05
1.66959e-05
6.52609e-05
1.67609e-05
4.97832e-05
1.54776e-05
3.63253e-05
1.34578e-05
2.51165e-05
1.12087e-05
1.60503e-05
9.06618e-06
8.90052e-06
7.14969e-06
3.59832e-06
5.30212e-06
5.0656e-07
3.09168e-06
5.06544e-07
4.47793e-06
-6.18203e-06
1.38542e-05
-1.39029e-05
2.43159e-05
-1.59572e-05
3.29013e-05
-1.33732e-05
3.79989e-05
-8.3459e-06
3.92189e-05
-2.85931e-06
3.68429e-05
1.9975e-06
3.11769e-05
6.17193e-06
2.21115e-05
1.03131e-05
9.01704e-06
1.52486e-05
-9.10511e-06
2.15766e-05
-3.33568e-05
2.94937e-05
-6.4638e-05
3.88026e-05
-0.000103388
4.90033e-05
-0.000149377
5.93232e-05
-0.000201541
6.87439e-05
-0.000257932
7.61197e-05
-0.000315837
8.03472e-05
-0.000372056
8.05362e-05
-0.000423252
7.61306e-05
-0.000466287
6.69583e-05
-0.000498481
5.32194e-05
-0.00051778
3.54435e-05
-0.000522843
1.44492e-05
-0.000513124
-8.61309e-06
-0.000488716
-3.25258e-05
-0.000450255
-5.60498e-05
-0.000398942
-7.78536e-05
-0.000336605
-9.6539e-05
-0.000265714
-0.000110728
-0.00018936
-0.000119178
-0.000111117
-0.000120939
-3.4865e-05
-0.000115559
3.53211e-05
-0.00010325
9.57453e-05
-8.50648e-05
0.000143589
-6.27917e-05
0.000176926
-3.84724e-05
0.000194963
-1.44362e-05
0.000198287
7.01726e-06
0.000188991
2.39867e-05
0.000170221
3.54661e-05
0.000145567
4.14148e-05
0.00011844
4.26045e-05
9.16083e-05
4.02893e-05
6.69422e-05
3.58746e-05
4.54318e-05
3.05764e-05
2.74695e-05
2.51118e-05
1.33413e-05
1.94301e-05
3.75781e-06
1.2675e-05
4.26433e-06
5.98939e-06
-1.21715e-05
1.73397e-05
-2.52536e-05
2.88006e-05
-2.74191e-05
3.68137e-05
-2.13877e-05
3.95181e-05
-1.10515e-05
3.63252e-05
3.32497e-07
2.71712e-05
1.11505e-05
1.18472e-05
2.1495e-05
-1.04139e-05
3.25734e-05
-4.08911e-05
4.5725e-05
-8.09446e-05
6.16294e-05
-0.000131497
8.00454e-05
-0.000192611
9.9916e-05
-0.000263178
0.00011957
-0.000340848
0.000136992
-0.000422258
0.000150154
-0.00050349
0.000157351
-0.000580589
0.000157445
-0.000650008
0.000149956
-0.000708888
0.00013501
-0.000755146
0.000113216
-0.00078743
8.55029e-05
-0.000804978
5.29915e-05
-0.000807442
1.69123e-05
-0.000794687
-2.13676e-05
-0.000766731
-6.04819e-05
-0.000723883
-9.88977e-05
-0.000666875
-0.000134862
-0.000596943
-0.000166472
-0.000515928
-0.000191743
-0.00042635
-0.000208756
-0.000331403
-0.000215885
-0.000234871
-0.000212092
-0.000140889
-0.000197232
-5.36876e-05
-0.000172267
2.27667e-05
-0.000139246
8.54957e-05
-0.000101202
0.000132705
-6.1646e-05
0.000163427
-2.37048e-05
0.000177801
9.61261e-06
0.00017736
3.59068e-05
0.000164904
5.38712e-05
0.000143978
6.353e-05
0.000118265
6.60019e-05
9.10271e-05
6.31126e-05
6.47404e-05
5.6863e-05
4.10667e-05
4.87853e-05
2.121e-05
3.92865e-05
6.60835e-06
2.72765e-05
1.08727e-05
6.50916e-06
-1.86804e-05
1.7594e-05
-3.63389e-05
2.694e-05
-3.6766e-05
3.07331e-05
-2.51818e-05
2.71678e-05
-7.4873e-06
1.55503e-05
1.19489e-05
-4.6564e-06
3.13562e-05
-3.44688e-05
5.13066e-05
-7.54117e-05
7.35155e-05
-0.000128961
9.92741e-05
-0.000195845
0.000128513
-0.000275478
0.000159678
-0.000365727
0.000190164
-0.000463097
0.00021694
-0.00056327
0.000237166
-0.000661797
0.00024868
-0.0007547
0.000250254
-0.000838844
0.000241589
-0.000912023
0.000223134
-0.000972838
0.000195826
-0.00102047
0.000160846
-0.00105442
0.000119458
-0.00107436
7.29282e-05
-0.00107996
2.25115e-05
-0.00107083
-3.0494e-05
-0.00104667
-8.46408e-05
-0.00100733
-0.000138243
-0.000952864
-0.000189327
-0.000883691
-0.000235645
-0.000800737
-0.000274697
-0.000705628
-0.000303865
-0.000600848
-0.000320665
-0.000489815
-0.000323125
-0.000376796
-0.000310251
-0.000266626
-0.000282437
-0.000164159
-0.000241713
-7.37157e-05
-0.000191645
1.42456e-06
-0.000136786
5.96827e-05
-8.19632e-05
0.000100755
-3.14597e-05
0.000124896
1.17656e-05
0.000133393
4.53738e-05
0.000128749
6.81737e-05
0.000114258
8.04926e-05
9.35026e-05
8.3868e-05
6.9845e-05
8.05204e-05
4.61037e-05
7.25265e-05
2.46311e-05
6.07589e-05
7.92693e-06
4.39806e-05
1.87996e-05
6.20331e-06
-2.48839e-05
1.48847e-05
-4.50207e-05
1.918e-05
-4.1062e-05
1.54294e-05
-2.14321e-05
2.08649e-06
5.8546e-06
-2.17343e-05
3.57688e-05
-5.7212e-05
6.68332e-05
-0.000106074
0.000100168
-0.000169944
0.000137384
-0.000249378
0.000178708
-0.000343185
0.000222319
-0.000448338
0.000264831
-0.00056045
0.000302275
-0.000674572
0.000331062
-0.000786027
0.000348621
-0.000890998
0.000353651
-0.000986763
0.000346018
-0.00107161
0.000326436
-0.00114459
0.000296114
-0.00120522
0.000256458
-0.00125327
0.000208892
-0.00128858
0.000154771
-0.00131103
9.53728e-05
-0.00132044
3.19246e-05
-0.00131655
-3.43835e-05
-0.001299
-0.000102195
-0.00126729
-0.000169946
-0.00122087
-0.000235747
-0.0011592
-0.000297318
-0.00108198
-0.000351916
-0.000989451
-0.000396395
-0.000882709
-0.000427407
-0.000764042
-0.000441792
-0.000637142
-0.000437151
-0.000507069
-0.000412511
-0.000379849
-0.000368933
-0.000261687
-0.000309807
-0.000157887
-0.000240586
-7.19828e-05
-0.000167868
-5.42098e-06
-9.80217e-05
4.2337e-05
-3.59925e-05
7.25376e-05
1.5173e-05
8.67837e-05
5.39275e-05
8.76007e-05
7.96754e-05
7.81959e-05
9.32726e-05
6.20805e-05
9.66357e-05
4.27155e-05
9.18913e-05
2.33961e-05
8.00781e-05
7.59938e-06
5.97771e-05
2.63989e-05
4.89284e-06
-2.97768e-05
8.85944e-06
-4.89878e-05
5.24651e-06
-3.74497e-05
-8.99417e-06
-7.19228e-06
-3.52076e-05
3.20672e-05
-7.45581e-05
7.51185e-05
-0.000128765
0.00012104
-0.000199575
0.000170978
-0.00028754
0.000225348
-0.000391125
0.000282293
-0.000506676
0.00033787
-0.000629122
0.000387277
-0.000753012
0.000426165
-0.000873438
0.000451488
-0.000986604
0.000461786
-0.00108995
0.000457003
-0.00118201
0.000438077
-0.00126208
0.000406506
-0.00132998
0.000364006
-0.00138582
0.000312305
-0.00142995
0.000253018
-0.00146278
0.0001876
-0.00148473
0.000117325
-0.00149612
4.33186e-05
-0.00149706
-3.3447e-05
-0.0014873
-0.000111952
-0.00146623
-0.000191018
-0.0014328
-0.000269179
-0.00138562
-0.000344501
-0.00132311
-0.00041442
-0.00124384
-0.000475671
-0.00114689
-0.000524355
-0.00103247
-0.000556215
-0.00090243
-0.000567188
-0.000760734
-0.000554207
-0.000613501
-0.000516166
-0.000468513
-0.000454796
-0.000334027
-0.000375072
-0.000217115
-0.00028478
-0.000122092
-0.000193044
-4.99268e-05
-0.000108158
1.01222e-06
-3.57662e-05
3.33275e-05
2.1612e-05
4.95714e-05
6.34313e-05
5.27018e-05
9.0142e-05
4.61319e-05
0.000103205
3.35636e-05
0.000104459
1.88579e-05
9.47837e-05
6.10897e-06
7.25259e-05
3.25079e-05
2.26457e-06
-3.20416e-05
-9.46638e-07
-4.57772e-05
-1.50658e-05
-2.33312e-05
-4.22833e-05
2.00245e-05
-8.37827e-05
7.35661e-05
-0.000140999
0.000132334
-0.00021563
0.000195671
-0.000308348
0.000263695
-0.000417605
0.000334605
-0.000539447
0.000404134
-0.000668317
0.00046674
-0.000798281
0.000517241
-0.000924069
0.000551953
-0.00104167
0.000569087
-0.00114843
0.000568548
-0.00124289
0.000551461
-0.00132447
0.000519659
-0.00139326
0.000475297
-0.00144983
0.000420579
-0.00149511
0.000357576
-0.0015302
0.000288108
-0.00155627
0.000213676
-0.0015744
0.000135447
-0.00158538
5.43051e-05
-0.00158972
-2.91109e-05
-0.00158741
-0.000114258
-0.00157793
-0.000200497
-0.00156011
-0.000287007
-0.0015321
-0.00037251
-0.00149146
-0.000455052
-0.00143534
-0.000531796
-0.00136079
-0.000598903
-0.00126543
-0.000651577
-0.0011482
-0.000684413
-0.0010103
-0.00069211
-0.000855884
-0.000670582
-0.000692355
-0.000618325
-0.000529753
-0.000537675
-0.000379092
-0.000435441
-0.000249862
-0.000322274
-0.000147551
-0.000210469
-7.26325e-05
-0.000110685
-2.18105e-05
-2.92101e-05
9.23699e-06
3.23836e-05
2.43698e-05
7.50091e-05
2.73713e-05
0.000100204
2.21982e-05
0.000109632
1.30298e-05
0.000103952
4.20767e-06
8.13479e-05
3.67155e-05
-1.93194e-06
-3.01099e-05
-1.46965e-05
-3.30133e-05
-4.13998e-05
3.3715e-06
-8.33308e-05
6.19549e-05
-0.000141501
0.000131736
-0.000217308
0.000208141
-0.000311527
0.000289889
-0.000422865
0.000375033
-0.000547419
0.000459159
-0.000679377
0.000536091
-0.000812347
0.000599711
-0.000940572
0.000645465
-0.00105961
0.000670991
-0.00116651
0.000675988
-0.00125966
0.000661695
-0.00133852
0.000630325
-0.00140344
0.000584577
-0.00145543
0.000527284
-0.00149598
0.00046113
-0.00152687
0.000388461
-0.00154991
0.000311157
-0.00156683
0.000230592
-0.00157906
0.000147677
-0.0015877
6.29506e-05
-0.00159349
-2.33227e-05
-0.00159669
-0.000111061
-0.00159704
-0.000200152
-0.00159362
-0.00029042
-0.00158478
-0.000381353
-0.00156796
-0.00047187
-0.00153972
-0.000560043
-0.00149582
-0.0006428
-0.0014317
-0.000715697
-0.00134321
-0.000772904
-0.00122774
-0.000807577
-0.00108555
-0.000812774
-0.000920919
-0.000782956
-0.000742699
-0.000715895
-0.000563629
-0.000614511
-0.000398079
-0.000487825
-0.000258449
-0.000350099
-0.000151523
-0.000217611
-7.69607e-05
-0.000103773
-2.93064e-05
-1.52708e-05
-2.13329e-06
4.78359e-05
9.93045e-06
8.81399e-05
1.17022e-05
0.00010786
7.77692e-06
0.000107877
2.59651e-06
8.65282e-05
3.9312e-05
-7.76335e-06
-2.23468e-05
-3.19487e-05
-8.82855e-06
-7.25813e-05
4.40036e-05
-0.000129916
0.00011929
-0.000204774
0.000206594
-0.000297879
0.000301246
-0.000408329
0.000400339
-0.000532605
0.000499308
-0.000664924
0.000591478
-0.000798551
0.000669718
-0.000927176
0.000728336
-0.00104579
0.000764079
-0.00115098
0.000776184
-0.00124088
0.000765883
-0.00131493
0.000735746
-0.0013737
0.000689093
-0.00141862
0.0006295
-0.00145173
0.000560394
-0.00147536
0.000484756
-0.00149183
0.000404933
-0.00150327
0.000322596
-0.00151147
0.00023879
-0.00151785
0.000154056
-0.00152346
6.85667e-05
-0.00152904
-1.77416e-05
-0.001535
-0.000105102
-0.0015414
-0.000193758
-0.00154784
-0.000283975
-0.00155334
-0.000375855
-0.00155604
-0.000469173
-0.00155297
-0.000563109
-0.0015399
-0.000655872
-0.00151134
-0.000744253
-0.00146102
-0.000823222
-0.00138283
-0.000885775
-0.0012723
-0.000923303
-0.00112851
-0.00092674
-0.000955814
-0.000888594
-0.000764698
-0.000805627
-0.000571043
-0.00068148
-0.000393063
-0.000528079
-0.000246297
-0.000364377
-0.000138499
-0.000211571
-6.7784e-05
-8.59863e-05
-2.59554e-05
6.00708e-06
-4.35265e-06
6.6537e-05
3.84472e-06
9.96629e-05
4.26958e-06
0.000107452
1.71116e-06
8.90865e-05
4.10232e-05
-1.49559e-05
-7.39107e-06
-5.17192e-05
2.79342e-05
-0.000106573
9.8857e-05
-0.00017884
0.000191556
-0.000268867
0.00029662
-0.000376102
0.000408481
-0.00049767
0.000521906
-0.000628162
0.0006298
-0.00076072
0.000724036
-0.000888529
0.000797526
-0.00100593
0.000845738
-0.00110894
0.000867091
-0.00119533
0.000862566
-0.00126444
0.000834994
-0.00131702
0.000788329
-0.00135491
0.000726979
-0.00138063
0.000655228
-0.00139703
0.000576793
-0.00140684
0.000494561
-0.00141243
0.000410523
-0.0014157
0.00032587
-0.00141808
0.000241167
-0.00142058
0.000156553
-0.00142391
7.18981e-05
-0.00142858
-1.3066e-05
-0.00143499
-9.86917e-05
-0.00144341
-0.000185344
-0.00145396
-0.000273425
-0.00146648
-0.000363337
-0.00148023
-0.000455418
-0.00149357
-0.000549772
-0.00150348
-0.000645961
-0.00150523
-0.000742502
-0.00149225
-0.000836207
-0.00145652
-0.000921504
-0.00138977
-0.000990052
-0.00128544
-0.00103107
-0.00114125
-0.00103278
-0.000961644
-0.000985234
-0.00075912
-0.000884004
-0.000553237
-0.000733962
-0.000366458
-0.000551156
-0.000217267
-0.000360762
-0.00011341
-0.000189843
-5.02416e-05
-5.71614e-05
-1.63748e-05
3.26701e-05
-1.31178e-06
8.45997e-05
2.73795e-06
0.000103402
1.64554e-06
9.01788e-05
4.26687e-05
-2.30098e-05
1.56185e-05
-7.24955e-05
7.74195e-05
-0.00014078
0.000167141
-0.000226346
0.000277122
-0.000328662
0.000398936
-0.000445592
0.000525411
-0.00057246
0.000648773
-0.000702625
0.000759965
-0.000828933
0.000850344
-0.000945082
0.000913676
-0.00104642
0.000947078
-0.00113022
0.00095089
-0.00119563
0.00092797
-0.00124346
0.000882826
-0.00127587
0.000820746
-0.00129588
0.000746986
-0.00130679
0.000666132
-0.0013117
0.000581705
-0.0013132
0.000496061
-0.0013132
0.000410526
-0.00131299
0.000325655
-0.00131333
0.000241512
-0.00131468
0.000157901
-0.0013173
7.45118e-05
-0.00132138
-8.9854e-06
-0.00132717
-9.29023e-05
-0.00133497
-0.000177535
-0.00134521
-0.000263189
-0.0013583
-0.000350252
-0.0013745
-0.000439215
-0.00139362
-0.000530649
-0.00141452
-0.000625061
-0.00143448
-0.000722545
-0.00144856
-0.000822124
-0.00144927
-0.0009208
-0.00142683
-0.00101248
-0.00137065
-0.00108725
-0.00127183
-0.0011316
-0.00112669
-0.00113038
-0.000940075
-0.00107062
-0.000727147
-0.00094689
-0.00051189
-0.000766412
-0.00032127
-0.000551382
-0.00017589
-0.000335223
-8.16653e-05
-0.000151386
-2.96538e-05
-1.93415e-05
-5.41685e-06
6.03626e-05
2.48176e-06
9.55034e-05
2.17817e-06
9.04823e-05
4.48468e-05
-3.11818e-05
4.68001e-05
-9.24643e-05
0.000138702
-0.000172466
0.000247143
-0.00026871
0.000373365
-0.000379529
0.000509755
-0.00050123
0.000647112
-0.000627814
0.000775357
-0.000752104
0.000884255
-0.000867264
0.000965503
-0.000967916
0.00101433
-0.00105069
0.00102985
-0.00111433
0.00101453
-0.00115957
0.000973207
-0.00118874
0.000912003
-0.00120525
0.00083725
-0.00121283
0.000754569
-0.00121497
0.000668276
-0.00121447
0.000581202
-0.00121326
0.00049485
-0.00121248
0.000409747
-0.00121266
0.000325839
-0.00121395
0.000242803
-0.00121631
0.000160254
-0.00121963
7.7837e-05
-0.00122389
-4.72643e-06
-0.00122916
-8.76335e-05
-0.00123566
-0.000171035
-0.00124379
-0.000255058
-0.00125414
-0.000339904
-0.00126744
-0.000425913
-0.00128445
-0.000513642
-0.00130561
-0.000603902
-0.00133049
-0.000697664
-0.00135693
-0.000795686
-0.00138004
-0.000897684
-0.00139153
-0.001001
-0.00137982
-0.00109896
-0.00133177
-0.00117965
-0.00123605
-0.0012261
-0.00108776
-0.00121891
-0.000892873
-0.00114178
-0.000670323
-0.000988963
-0.000449474
-0.000772231
-0.000261687
-0.00052301
-0.000127825
-0.000285248
-4.91902e-05
-9.79767e-05
-1.13014e-05
2.24737e-05
2.14463e-06
8.20573e-05
2.87657e-06
8.97502e-05
4.77234e-05
-3.85969e-05
8.53968e-05
-0.000109898
0.000210002
-0.000199148
0.000336393
-0.000302799
0.000477015
-0.000417983
0.000624939
-0.000539738
0.000768867
-0.000661317
0.000896937
-0.00077561
0.000998548
-0.000876543
0.00106644
-0.000959962
0.00109775
-0.00102399
0.00109388
-0.001069
0.00105954
-0.00109729
0.0010015
-0.00111249
0.000927204
-0.00111872
0.000843479
-0.00111984
0.000755681
-0.00111887
0.000667314
-0.00111785
0.000580177
-0.00111781
0.000494816
-0.00111912
0.000411052
-0.00112168
0.000328401
-0.00112523
0.000246355
-0.00112948
0.0001645
-0.00113419
8.25453e-05
-0.00113923
3.11428e-07
-0.00114457
-8.22874e-05
-0.00115033
-0.00016528
-0.00115673
-0.000248657
-0.0011642
-0.000332434
-0.0011734
-0.000416707
-0.00118529
-0.000501757
-0.00120101
-0.000588179
-0.00122167
-0.000677007
-0.00124764
-0.000769711
-0.0012775
-0.000867826
-0.00130658
-0.000971919
-0.0013258
-0.00107974
-0.00132164
-0.00118381
-0.00127819
-0.00126954
-0.00118171
-0.0013154
-0.0010267
-0.00129679
-0.000821581
-0.00119408
-0.000590713
-0.0010031
-0.000369836
-0.000743887
-0.000193707
-0.000461378
-8.00142e-05
-0.000211669
-2.19752e-05
-3.55654e-05
2.30235e-07
5.98517e-05
3.26665e-06
8.67137e-05
5.099e-05
-4.44885e-05
0.000129885
-0.000123368
0.000288882
-0.000218913
0.000431938
-0.000326437
0.00058454
-0.000441996
0.000740498
-0.000559773
0.000886643
-0.00067282
0.00100998
-0.000774553
0.00110028
-0.000859973
0.00115186
-0.000926347
0.00116412
-0.000973395
0.00114092
-0.00100307
0.00108922
-0.00101899
0.00101742
-0.0010255
0.000933717
-0.00102682
0.000844803
-0.0010263
0.000755162
-0.00102611
0.000667118
-0.00102729
0.000581357
-0.00103008
0.000497605
-0.00103424
0.000415214
-0.00103937
0.000333529
-0.00104506
0.000252049
-0.00105101
0.000170451
-0.00105702
8.85547e-05
-0.00106299
6.27649e-06
-0.00106888
-7.63996e-05
-0.00107471
-0.000159445
-0.00108057
-0.000242802
-0.00108661
-0.00032639
-0.00109318
-0.000410139
-0.00110089
-0.000494048
-0.00111076
-0.000578312
-0.00112424
-0.000663526
-0.00114302
-0.000750924
-0.00116835
-0.000842501
-0.00119959
-0.000940674
-0.00123234
-0.00104699
-0.00125659
-0.00115957
-0.00125652
-0.00126961
-0.00121326
-0.00135866
-0.00111092
-0.00139913
-0.000944683
-0.00136032
-0.00072754
-0.00122024
-0.000491426
-0.000980001
-0.000278935
-0.000673868
-0.000125339
-0.000365266
-3.96972e-05
-0.000121207
-4.41106e-06
2.45655e-05
3.02353e-06
7.9279e-05
5.40136e-05
-4.82872e-05
0.000178172
-0.000131893
0.000372488
-0.000230584
0.000530628
-0.000338546
0.000692502
-0.000450991
0.000852943
-0.000561694
0.000997346
-0.000663952
0.00111224
-0.00075203
0.00118836
-0.000822198
0.00122202
-0.000873216
0.00121514
-0.000906331
0.00117404
-0.0009248
0.00110769
-0.000933023
0.00102564
-0.000935494
0.000936189
-0.000935917
0.000845225
-0.000936724
0.000755969
-0.000939077
0.000669471
-0.000943181
0.000585462
-0.00094871
0.000503133
-0.000955157
0.000421662
-0.000962065
0.000340437
-0.000969108
0.000259092
-0.000976098
0.000177441
-0.000982953
9.54099e-05
-0.000989653
1.29765e-05
-0.000996201
-6.98519e-05
-0.0010026
-0.000153047
-0.00100884
-0.000236564
-0.0010149
-0.000320325
-0.00102083
-0.000404212
-0.00102679
-0.000488082
-0.00103327
-0.000571832
-0.00104125
-0.000655546
-0.0010524
-0.000739783
-0.00106893
-0.000825964
-0.00109294
-0.000916666
-0.0011246
-0.00101533
-0.00115959
-0.00112458
-0.00118656
-0.00124264
-0.00118685
-0.00135837
-0.00113839
-0.00144758
-0.00102403
-0.00147468
-0.000841838
-0.00140243
-0.000612467
-0.00120937
-0.000377637
-0.000908698
-0.000185573
-0.000557329
-6.59113e-05
-0.000240869
-1.23513e-05
-2.89946e-05
2.03222e-06
6.48954e-05
5.60458e-05
-4.96652e-05
0.000227838
-0.000134988
0.00045781
-0.000233743
0.000629384
-0.000339062
0.000797821
-0.000445606
0.000959487
-0.000547133
0.00109887
-0.000637517
0.00120263
-0.00071207
0.00126291
-0.000768391
0.00127834
-0.000806657
0.00125341
-0.000829385
0.00119677
-0.00084068
0.00111898
-0.000845163
0.00103012
-0.000846899
0.000937925
-0.000848708
0.000847034
-0.000852007
0.000759267
-0.00085709
0.000674555
-0.000863606
0.000591977
-0.000870985
0.000510513
-0.00087872
0.000429397
-0.000886472
0.00034819
-0.000894077
0.000266697
-0.000901495
0.000184859
-0.000908753
0.000102668
-0.000915902
2.01255e-05
-0.000922985
-6.27687e-05
-0.000930016
-0.000146015
-0.00093697
-0.00022961
-0.000943775
-0.00031352
-0.000950319
-0.000397668
-0.000956491
-0.000481911
-0.000962283
-0.00056604
-0.00096799
-0.000649839
-0.000974511
-0.000733262
-0.000983661
-0.000816814
-0.000998197
-0.00090213
-0.00102103
-0.000992499
-0.00105301
-0.00109259
-0.00108948
-0.00120617
-0.00111696
-0.00133089
-0.00111317
-0.00145138
-0.00105294
-0.00153491
-0.000919657
-0.00153571
-0.000717884
-0.00141115
-0.00047979
-0.00114679
-0.000258021
-0.000779097
-0.000101431
-0.00039746
-2.37522e-05
-0.000106673
2.99747e-07
4.08433e-05
5.63455e-05
-4.85375e-05
0.000276375
-0.000132624
0.000541897
-0.00022863
0.00072539
-0.00032874
0.000897931
-0.000427347
0.00105809
-0.000518511
0.00119004
-0.000596896
0.00128101
-0.000658936
0.00132495
-0.000703491
0.0013229
-0.000731934
0.00128185
-0.000747662
0.00121249
-0.000755119
0.00112644
-0.000758634
0.00103364
-0.000761488
0.000940779
-0.000765513
0.000851059
-0.000771248
0.000765001
-0.000778411
0.000681718
-0.000786408
0.000599975
-0.000794685
0.00051879
-0.000802879
0.000437591
-0.000810831
0.000356142
-0.000818527
0.000274393
-0.000826034
0.000192366
-0.000833443
0.000110077
-0.000840838
2.75208e-05
-0.000848284
-5.53227e-05
-0.000855809
-0.00013849
-0.000863407
-0.000222012
-0.000871019
-0.000305908
-0.000878521
-0.000390166
-0.000885717
-0.000474715
-0.000892367
-0.00055939
-0.000898287
-0.000643918
-0.000903588
-0.000727962
-0.000909074
-0.000811327
-0.000916728
-0.000894476
-0.000929864
-0.000979362
-0.000952207
-0.00107025
-0.000985027
-0.00117335
-0.0010225
-0.00129341
-0.00104777
-0.0014261
-0.00103411
-0.00154858
-0.00095414
-0.00161568
-0.000795277
-0.00157001
-0.000573695
-0.00136837
-0.000336863
-0.00101593
-0.000145988
-0.000588334
-3.89882e-05
-0.000213673
-2.31321e-06
4.16824e-06
5.40323e-05
-4.50252e-05
0.0003214
-0.000125148
0.00062202
-0.000215979
0.000816221
-0.000308883
0.000990836
-0.000398225
0.00114744
-0.000478591
0.0012704
-0.000545544
0.00134797
-0.0005966
0.00137601
-0.000631705
0.001358
-0.000653102
0.00130325
-0.000664632
0.00122402
-0.000670616
0.00113242
-0.000674751
0.00103777
-0.000679406
0.000945434
-0.000685539
0.000857192
-0.000693078
0.00077254
-0.000701469
0.000690109
-0.000710121
0.000608627
-0.000718629
0.000527297
-0.000726816
0.000445778
-0.000734679
0.000364004
-0.000742303
0.000282017
-0.000749803
0.000199866
-0.000757291
0.000117564
-0.000764851
3.50812e-05
-0.000772549
-4.76251e-05
-0.000780418
-0.000130621
-0.000788469
-0.000213961
-0.000796677
-0.0002977
-0.000804963
-0.00038188
-0.000813171
-0.000466507
-0.000821042
-0.000551518
-0.000828231
-0.00063673
-0.000834395
-0.000721797
-0.000839481
-0.000806242
-0.000844241
-0.000889716
-0.000850906
-0.000972697
-0.000863464
-0.00105769
-0.000886421
-0.00115039
-0.000920894
-0.00125894
-0.000958555
-0.00138844
-0.000977492
-0.00152964
-0.000946095
-0.00164708
-0.000837449
-0.00167865
-0.000648773
-0.00155705
-0.000414141
-0.00125056
-0.000197542
-0.000804933
-5.87156e-05
-0.0003525
-5.87797e-06
-4.86694e-05
4.81543e-05
-3.94019e-05
0.000360802
-0.00011316
0.000695778
-0.000196833
0.000899894
-0.000281086
0.00107509
-0.00036043
0.00122678
-0.000430118
0.00134009
-0.000486622
0.00140447
-0.00052842
0.00141781
-0.000556282
0.00138587
-0.000572962
0.00131993
-0.000582333
0.0012334
-0.000588267
0.00113836
-0.000593671
0.00104317
-0.000600068
0.000951832
-0.000607769
0.000864893
-0.000616372
0.000781144
-0.000625286
0.000699023
-0.000634052
0.000617393
-0.00064245
0.000535696
-0.000650462
0.000453791
-0.000658182
0.000371724
-0.000665741
0.000289575
-0.00067326
0.000207386
-0.000680843
0.000125146
-0.00068856
4.27992e-05
-0.000696468
-3.97172e-05
-0.000704597
-0.000122492
-0.000712964
-0.000205594
-0.000721567
-0.000289097
-0.000730371
-0.000373076
-0.000739286
-0.000457592
-0.000748135
-0.000542669
-0.000756614
-0.000628251
-0.000764283
-0.000714127
-0.000770665
-0.00079986
-0.000775576
-0.000884805
-0.000779809
-0.000968463
-0.000786024
-0.00105148
-0.000799061
-0.00113736
-0.000824055
-0.00123395
-0.000860899
-0.0013516
-0.000896648
-0.0014939
-0.000902535
-0.00164119
-0.000843198
-0.00173799
-0.000697782
-0.00170247
-0.000481648
-0.0014667
-0.000252019
-0.00103456
-8.30784e-05
-0.00052144
-1.03752e-05
-0.000121373
3.77792e-05
-3.20402e-05
0.000392843
-9.74087e-05
0.000761146
-0.00017238
0.000974866
-0.000247018
0.00114973
-0.000316089
0.00129585
-0.000375573
0.00139957
-0.000422794
0.00145169
-0.000457003
0.00145202
-0.00047951
0.00140837
-0.000493226
0.00133364
-0.000501747
0.00124192
-0.000508303
0.00114491
-0.000515018
0.00104989
-0.000522742
0.000959556
-0.000531386
0.000873537
-0.000540442
0.000790201
-0.000549415
0.000707996
-0.000558018
0.000625996
-0.00056619
0.000543869
-0.000574016
0.000461616
-0.000581633
0.000379341
-0.000589177
0.000297119
-0.000596758
0.000214968
-0.000604462
0.00013285
-0.000612347
5.06845e-05
-0.000620459
-3.16053e-05
-0.000628821
-0.00011413
-0.00063745
-0.000196965
-0.00064635
-0.000280196
-0.000655509
-0.000363916
-0.000664886
-0.000448215
-0.000674383
-0.000533172
-0.000683804
-0.00061883
-0.000692799
-0.000705132
-0.000700842
-0.000791818
-0.00070733
-0.000878317
-0.000712016
-0.000963777
-0.000715898
-0.00104759
-0.000722351
-0.0011309
-0.000737274
-0.00121902
-0.000765917
-0.00132296
-0.000804978
-0.00145484
-0.000834014
-0.00161215
-0.000816523
-0.00175548
-0.000717835
-0.00180115
-0.000532786
-0.00165175
-0.000304148
-0.0012632
-0.000111067
-0.000714521
-1.58076e-05
-0.000216632
2.19715e-05
-2.33645e-05
0.000416207
-7.87013e-05
0.000816483
-0.000143818
0.00103998
-0.000208267
0.00121418
-0.000267106
0.00135469
-0.000317041
0.00144951
-0.00035614
0.00149079
-0.000384221
0.0014801
-0.000402847
0.001427
-0.000414797
0.00134559
-0.000423177
0.0012503
-0.000430522
0.00115226
-0.000438274
0.00105764
-0.000446817
0.000968098
-0.000455868
0.000882588
-0.000464956
0.000799289
-0.000473731
0.000716771
-0.000482063
0.000634328
-0.000489999
0.000551804
-0.000497671
0.000469289
-0.000505225
0.000386896
-0.000512785
0.000304679
-0.000520444
0.000222627
-0.000528273
0.000140679
-0.000536324
5.87361e-05
-0.000544639
-2.32904e-05
-0.000553234
-0.000105534
-0.000562122
-0.000188077
-0.000571305
-0.000271012
-0.000580778
-0.000354444
-0.000590518
-0.000438475
-0.000600474
-0.000523215
-0.00061054
-0.000608764
-0.000620494
-0.000695178
-0.00062993
-0.000782382
-0.000638223
-0.000870023
-0.000644671
-0.000957329
-0.000649065
-0.0010432
-0.000652881
-0.00112709
-0.000660619
-0.00121129
-0.000679302
-0.00130427
-0.000712947
-0.00142119
-0.000751758
-0.00157334
-0.00076483
-0.00174241
-0.000710183
-0.0018558
-0.000563717
-0.00179821
-0.000348906
-0.00147801
-0.000140695
-0.000922732
-2.20721e-05
-0.000335255
-1.00576e-07
-1.38158e-05
0.000430023
-5.78355e-05
0.000860503
-0.000112274
0.00109442
-0.000166247
0.00126815
-0.000215084
0.00140353
-0.000256168
0.00149059
-0.000288185
0.00152281
-0.00031131
0.00150322
-0.000327112
0.0014428
-0.000338025
0.00135651
-0.000346555
0.00125883
-0.000354569
0.00116027
-0.000362977
0.00106605
-0.000371874
0.000976996
-0.000380937
0.000891651
-0.000389796
0.000808149
-0.000398248
0.000725223
-0.000406276
0.000642356
-0.000413986
0.000559515
-0.000421525
0.000476828
-0.000429027
0.000394398
-0.000436597
0.00031225
-0.000444316
0.000230347
-0.00045225
0.000148613
-0.00046045
6.69368e-05
-0.00046896
-1.47804e-05
-0.000477792
-9.67012e-05
-0.000486956
-0.000178913
-0.000496448
-0.00026152
-0.000506258
-0.000344633
-0.000516368
-0.000428366
-0.000526746
-0.000512837
-0.000537332
-0.000598178
-0.000547998
-0.000684512
-0.000558482
-0.000771897
-0.000568303
-0.000860202
-0.000576724
-0.000948908
-0.000582981
-0.00103694
-0.000587096
-0.00112297
-0.000591461
-0.00120692
-0.000602164
-0.00129357
-0.000626852
-0.0013965
-0.000665375
-0.00153482
-0.000696851
-0.00171094
-0.000679167
-0.00187348
-0.000573613
-0.00190376
-0.000382588
-0.00166904
-0.000169393
-0.00113593
-2.93766e-05
-0.000475271
-2.94772e-05
-3.81347e-06
0.000433837
-3.55752e-05
0.000892265
-7.87528e-05
0.0011376
-0.000122156
0.00131155
-0.000161307
0.00144268
-0.000194186
0.00152347
-0.00021997
0.00154859
-0.000239007
0.00152226
-0.00025268
0.00145647
-0.000262938
0.00136676
-0.000271647
0.00126754
-0.000280085
0.00116871
-0.000288771
0.00107474
-0.000297657
0.000985882
-0.000306459
0.000900454
-0.000314936
0.000816626
-0.000323001
0.000733288
-0.00033071
0.000650066
-0.000338193
0.000566998
-0.000345588
0.000484223
-0.000353015
0.000401825
-0.000360565
0.0003198
-0.000368308
0.00023809
-0.000376309
0.000156615
-0.000384631
7.52585e-05
-0.000393318
-6.09205e-06
-0.000402389
-8.76302e-05
-0.000411847
-0.000169455
-0.000421681
-0.000251685
-0.000431876
-0.000334438
-0.000442409
-0.000417832
-0.000453253
-0.000501993
-0.000464366
-0.000587065
-0.000475672
-0.000673206
-0.000487009
-0.00076056
-0.00049805
-0.000849161
-0.000508209
-0.000938749
-0.000516635
-0.00102852
-0.000522598
-0.00111701
-0.000526702
-0.00120282
-0.000532881
-0.00128739
-0.000549073
-0.00138031
-0.00058159
-0.0015023
-0.000620844
-0.00167168
-0.000630806
-0.00186352
-0.00056419
-0.00197038
-0.000403313
-0.00182991
-0.000194727
-0.00134451
-3.77829e-05
-0.000632215
-6.72601e-05
6.10482e-06
0.000427732
-1.25879e-05
0.000910958
-4.41457e-05
0.00116916
-7.69851e-05
0.00134439
-0.00010677
0.00147246
-0.000131978
0.00154868
-0.000152158
0.00156877
-0.000167691
0.00153779
-0.000179641
0.00146842
-0.000189387
0.00137651
-0.00019817
0.00127632
-0.00020676
0.0011773
-0.000215407
0.00108338
-0.00022401
0.000994486
-0.000232372
0.000908816
-0.000240369
0.000824623
-0.000248002
0.000740921
-0.000255367
0.000657431
-0.000262596
0.000574227
-0.000269814
0.000491441
-0.000277123
0.000409135
-0.000284606
0.000327283
-0.00029233
0.000245814
-0.000300358
0.000164643
-0.000308765
8.36661e-05
-0.000317606
2.75016e-06
-0.000326909
-7.8327e-05
-0.000336673
-0.00015969
-0.00034688
-0.000241478
-0.000357507
-0.000323811
-0.000368527
-0.000406812
-0.000379912
-0.000490609
-0.000391624
-0.000575352
-0.000403611
-0.000661219
-0.000415765
-0.000748406
-0.00042787
-0.000837055
-0.000439506
-0.000927113
-0.000449953
-0.00101807
-0.000458277
-0.00110868
-0.000464009
-0.00119708
-0.000468929
-0.00128247
-0.000479252
-0.00136999
-0.000504024
-0.00147753
-0.000543405
-0.0016323
-0.000571468
-0.00183546
-0.000538851
-0.002003
-0.000410973
-0.00195779
-0.000214938
-0.00154055
-4.68697e-05
-0.000800283
-0.00011413
1.53326e-05
0.000412399