/*--------------------------------*- C++ -*----------------------------------*\
  =========                 |
  \\      /  F ield         | OpenFOAM: The Open Source CFD Toolbox
   \\    /   O peration     | Website:  https://openfoam.org
    \\  /    A nd           | Version:  7
     \\/     M anipulation  |
\*---------------------------------------------------------------------------*/
FoamFile
{
    version     2.0;
    format      ascii;
    class       volVectorField;
    location    "500";
    object      U;
}
// * * * * * * * * * * * * * * * * * * * * * * * * * * * * * * * * * * * * * //

dimensions      [0 1 -1 0 0 0 0];

internalField   nonuniform List<vector> 
2500
(
(0.000208139 -0.00020115 0)
(0.00186809 -0.000571315 0)
(0.00447664 -0.000698082 0)
(0.00716562 -0.000600293 0)
(0.0092313 -0.00041913 0)
(0.010452 -0.000264487 0)
(0.0109311 -0.000188228 0)
(0.0108813 -0.000186169 0)
(0.0104498 -0.000220179 0)
(0.00963183 -0.000245695 0)
(0.00827778 -0.00022883 0)
(0.00615506 -0.000150736 0)
(0.00300616 -2.36214e-06 0)
(-0.00141291 0.000221671 0)
(-0.007307 0.000524518 0)
(-0.0148088 0.000909766 0)
(-0.023941 0.00137747 0)
(-0.0345735 0.00191605 0)
(-0.0463886 0.00249228 0)
(-0.0588601 0.00304386 0)
(-0.0712592 0.0034809 0)
(-0.0826922 0.0036987 0)
(-0.0921695 0.00359868 0)
(-0.0987077 0.00311544 0)
(-0.10144 0.00224304 0)
(-0.0996931 0.00103939 0)
(-0.0931951 -0.000364882 0)
(-0.0820191 -0.00180401 0)
(-0.066631 -0.00310434 0)
(-0.0478863 -0.00409883 0)
(-0.0270026 -0.0046425 0)
(-0.00546288 -0.00461298 0)
(0.0152062 -0.00394663 0)
(0.033534 -0.0027968 0)
(0.0482125 -0.00138428 0)
(0.0582825 0.000112994 0)
(0.0633609 0.00148569 0)
(0.0636576 0.00252555 0)
(0.059976 0.00310624 0)
(0.053481 0.00322196 0)
(0.0454047 0.00298558 0)
(0.0368515 0.00254993 0)
(0.0286599 0.00204961 0)
(0.0213511 0.00157542 0)
(0.0151561 0.00117524 0)
(0.0100868 0.000864281 0)
(0.00603404 0.000631948 0)
(0.00290429 0.000436611 0)
(0.000796824 0.000193274 0)
(-8.17519e-05 -8.71395e-05 0)
(0.00056696 -0.00181917 0)
(0.00437735 -0.00431791 0)
(0.0095851 -0.00511799 0)
(0.0146061 -0.0044409 0)
(0.0181617 -0.00299773 0)
(0.0197657 -0.00145672 0)
(0.0194567 -0.000191087 0)
(0.0174457 0.000767496 0)
(0.0138173 0.00162816 0)
(0.00838173 0.00266978 0)
(0.000701488 0.00410962 0)
(-0.00978035 0.00605355 0)
(-0.0235933 0.00850568 0)
(-0.0410998 0.0113989 0)
(-0.0623798 0.0145947 0)
(-0.0871254 0.0178672 0)
(-0.114577 0.0208957 0)
(-0.14354 0.0232875 0)
(-0.17249 0.0246338 0)
(-0.199746 0.0245772 0)
(-0.223651 0.0228707 0)
(-0.242725 0.0194146 0)
(-0.255768 0.014273 0)
(-0.261923 0.00767824 0)
(-0.260716 1.98774e-05 0)
(-0.25208 -0.00818629 0)
(-0.236207 -0.0163696 0)
(-0.213546 -0.0239762 0)
(-0.184863 -0.0304434 0)
(-0.151244 -0.035237 0)
(-0.114097 -0.0378941 0)
(-0.0751215 -0.0380707 0)
(-0.0362255 -0.0356204 0)
(0.000654815 -0.0307247 0)
(0.0336739 -0.023881 0)
(0.0611535 -0.0158152 0)
(0.0817752 -0.00734867 0)
(0.0948139 0.000636295 0)
(0.100134 0.00729569 0)
(0.0983449 0.0120458 0)
(0.0908991 0.0146872 0)
(0.0795825 0.0154201 0)
(0.0662213 0.0147085 0)
(0.0524147 0.0131058 0)
(0.0393425 0.0111183 0)
(0.0277009 0.0091129 0)
(0.0177798 0.00725187 0)
(0.00968675 0.00543773 0)
(0.00372855 0.0033459 0)
(0.000329716 0.000919948 0)
(0.000786306 -0.00449756 0)
(0.00569031 -0.00969775 0)
(0.011719 -0.0109183 0)
(0.016905 -0.00900439 0)
(0.0197578 -0.00542038 0)
(0.0197006 -0.00146439 0)
(0.0166511 0.00215971 0)
(0.0106064 0.00543272 0)
(0.00134016 0.00879441 0)
(-0.0116805 0.0128114 0)
(-0.0291691 0.0178696 0)
(-0.0517536 0.0240456 0)
(-0.0797386 0.0311274 0)
(-0.112893 0.0386505 0)
(-0.15034 0.0459338 0)
(-0.190602 0.0521579 0)
(-0.231789 0.0564989 0)
(-0.271864 0.0582707 0)
(-0.308902 0.0570275 0)
(-0.341278 0.052604 0)
(-0.367756 0.0450998 0)
(-0.387492 0.0348306 0)
(-0.399975 0.0222693 0)
(-0.404946 0.0079959 0)
(-0.40233 -0.0073398 0)
(-0.392105 -0.0230559 0)
(-0.374307 -0.038442 0)
(-0.349205 -0.0527108 0)
(-0.317283 -0.0650269 0)
(-0.279306 -0.0745509 0)
(-0.236364 -0.0805088 0)
(-0.189891 -0.0822902 0)
(-0.141646 -0.0795628 0)
(-0.0936338 -0.0723796 0)
(-0.0479657 -0.0612865 0)
(-0.00663785 -0.0472881 0)
(0.028626 -0.031675 0)
(0.0564652 -0.0158962 0)
(0.0761853 -0.00124203 0)
(0.0875152 0.0110904 0)
(0.0907119 0.0201917 0)
(0.0870273 0.0256958 0)
(0.0781657 0.0278331 0)
(0.0660163 0.0272917 0)
(0.05238 0.0249702 0)
(0.0387189 0.0217243 0)
(0.0260349 0.018125 0)
(0.0149697 0.0142434 0)
(0.0062577 0.00958736 0)
(0.00070549 0.00358929 0)
(0.000918099 -0.00772994 0)
(0.0060685 -0.015595 0)
(0.0115433 -0.0165367 0)
(0.0151552 -0.0124458 0)
(0.0154012 -0.00572345 0)
(0.0117229 0.00171367 0)
(0.00389491 0.00896098 0)
(-0.00843258 0.0161283 0)
(-0.025926 0.0239793 0)
(-0.0494012 0.0332647 0)
(-0.079495 0.0442634 0)
(-0.116303 0.0566328 0)
(-0.159154 0.0694953 0)
(-0.206591 0.0816268 0)
(-0.256572 0.0916975 0)
(-0.306812 0.098522 0)
(-0.355136 0.101253 0)
(-0.399737 0.0994706 0)
(-0.439284 0.0931623 0)
(-0.472902 0.0826308 0)
(-0.50007 0.0683776 0)
(-0.520492 0.0510008 0)
(-0.533974 0.0311291 0)
(-0.540356 0.00939828 0)
(-0.53948 -0.013531 0)
(-0.53116 -0.0369299 0)
(-0.515266 -0.0599531 0)
(-0.491774 -0.0816366 0)
(-0.460786 -0.100914 0)
(-0.422622 -0.116645 0)
(-0.377898 -0.127693 0)
(-0.327627 -0.133055 0)
(-0.273277 -0.132036 0)
(-0.216784 -0.124427 0)
(-0.160462 -0.110659 0)
(-0.106791 -0.0918416 0)
(-0.0581219 -0.0696722 0)
(-0.0163285 -0.0461549 0)
(0.0173937 -0.0232054 0)
(0.0424517 -0.00256901 0)
(0.0587856 0.0145167 0)
(0.0666519 0.0271269 0)
(0.0671606 0.0348847 0)
(0.0618661 0.0381295 0)
(0.0525574 0.0377643 0)
(0.0410261 0.0349239 0)
(0.0288236 0.0305663 0)
(0.0171863 0.025034 0)
(0.00742021 0.0177439 0)
(0.000862033 0.00736862 0)
(0.000999895 -0.0110208 0)
(0.00560833 -0.0208274 0)
(0.00921994 -0.0203415 0)
(0.00965944 -0.0128877 0)
(0.00558912 -0.00191479 0)
(-0.00351007 0.0101548 0)
(-0.018104 0.0224221 0)
(-0.0389492 0.0353321 0)
(-0.0669798 0.0498248 0)
(-0.102846 0.066424 0)
(-0.146443 0.0847543 0)
(-0.196691 0.103582 0)
(-0.251646 0.121175 0)
(-0.308859 0.135739 0)
(-0.365821 0.145787 0)
(-0.420354 0.150372 0)
(-0.470816 0.149129 0)
(-0.516125 0.142184 0)
(-0.555656 0.129995 0)
(-0.589086 0.113183 0)
(-0.616261 0.0924193 0)
(-0.637098 0.0683648 0)
(-0.651534 0.0416547 0)
(-0.659492 0.0129148 0)
(-0.66087 -0.0172038 0)
(-0.655532 -0.0479746 0)
(-0.643266 -0.0785413 0)
(-0.623796 -0.107894 0)
(-0.596827 -0.134855 0)
(-0.562127 -0.158068 0)
(-0.519644 -0.17606 0)
(-0.469669 -0.187361 0)
(-0.413009 -0.190715 0)
(-0.351138 -0.185346 0)
(-0.286258 -0.171233 0)
(-0.221204 -0.149302 0)
(-0.159143 -0.12144 0)
(-0.103078 -0.090253 0)
(-0.0553011 -0.0585935 0)
(-0.017005 -0.0289831 0)
(0.0116819 -0.0032003 0)
(0.0311413 0.0175512 0)
(0.0419248 0.0326005 0)
(0.0452356 0.041792 0)
(0.0425927 0.0456624 0)
(0.0357218 0.0452788 0)
(0.0263857 0.0417503 0)
(0.0162432 0.0355974 0)
(0.0071067 0.0261584 0)
(0.000796111 0.0113846 0)
(0.000995416 -0.0139239 0)
(0.00415563 -0.0242882 0)
(0.00456446 -0.0208618 0)
(0.000365931 -0.00869946 0)
(-0.00951271 0.00769632 0)
(-0.0256346 0.0256455 0)
(-0.0487439 0.0445484 0)
(-0.0798209 0.0650785 0)
(-0.119578 0.0878904 0)
(-0.167826 0.112667 0)
(-0.223217 0.137949 0)
(-0.283442 0.161581 0)
(-0.34573 0.181342 0)
(-0.40739 0.195456 0)
(-0.4662 0.202855 0)
(-0.52058 0.203198 0)
(-0.569559 0.196711 0)
(-0.612635 0.183976 0)
(-0.649616 0.16574 0)
(-0.680507 0.142783 0)
(-0.705436 0.115861 0)
(-0.724603 0.0856743 0)
(-0.738232 0.0528708 0)
(-0.746517 0.018056 0)
(-0.749566 -0.0181812 0)
(-0.747382 -0.0552269 0)
(-0.739766 -0.092375 0)
(-0.726282 -0.128748 0)
(-0.706313 -0.163241 0)
(-0.679091 -0.194468 0)
(-0.64382 -0.220761 0)
(-0.599849 -0.24025 0)
(-0.546933 -0.251047 0)
(-0.485514 -0.251548 0)
(-0.417002 -0.240825 0)
(-0.343931 -0.219028 0)
(-0.269868 -0.187666 0)
(-0.199004 -0.149592 0)
(-0.135391 -0.108573 0)
(-0.0820383 -0.0684909 0)
(-0.0402405 -0.0324703 0)
(-0.00962662 -0.00237951 0)
(0.0109701 0.0210468 0)
(0.0227409 0.0375276 0)
(0.0271137 0.0472776 0)
(0.0257517 0.0510773 0)
(0.0204449 0.0499199 0)
(0.0130666 0.04431 0)
(0.00574444 0.0334734 0)
(0.00059045 0.0148933 0)
(0.000838866 -0.0158612 0)
(0.00147345 -0.0247535 0)
(-0.00262017 -0.016664 0)
(-0.0127274 0.00149312 0)
(-0.0296324 0.0244603 0)
(-0.0540106 0.0496424 0)
(-0.0867614 0.0767317 0)
(-0.128642 0.10619 0)
(-0.179522 0.137765 0)
(-0.237966 0.169906 0)
(-0.301443 0.200128 0)
(-0.366918 0.225799 0)
(-0.431476 0.244805 0)
(-0.492754 0.255889 0)
(-0.549102 0.258661 0)
(-0.599526 0.253409 0)
(-0.643556 0.240839 0)
(-0.681095 0.221866 0)
(-0.712328 0.197463 0)
(-0.737644 0.168577 0)
(-0.757572 0.136075 0)
(-0.772707 0.100712 0)
(-0.783622 0.0631163 0)
(-0.790799 0.0238063 0)
(-0.794564 -0.0167769 0)
(-0.79507 -0.058228 0)
(-0.792222 -0.100112 0)
(-0.785573 -0.141839 0)
(-0.774376 -0.182571 0)
(-0.75755 -0.221126 0)
(-0.733736 -0.255901 0)
(-0.701428 -0.284867 0)
(-0.659207 -0.305663 0)
(-0.606104 -0.315844 0)
(-0.542042 -0.313296 0)
(-0.468279 -0.296792 0)
(-0.387711 -0.266581 0)
(-0.304829 -0.224802 0)
(-0.225164 -0.175467 0)
(-0.154186 -0.12381 0)
(-0.0959037 -0.0750263 0)
(-0.0517838 -0.0329165 0)
(-0.0208185 0.000759825 0)
(-0.000801142 0.0258628 0)
(0.0102648 0.0427251 0)
(0.0142821 0.0519679 0)
(0.0131863 0.0543872 0)
(0.00900081 0.0503357 0)
(0.00399556 0.0389169 0)
(0.000361693 0.0174886 0)
(0.000463224 -0.0160873 0)
(-0.00258812 -0.0209436 0)
(-0.0123162 -0.00657118 0)
(-0.0292834 0.0187195 0)
(-0.0540199 0.0493473 0)
(-0.0872771 0.0829694 0)
(-0.129777 0.119232 0)
(-0.181523 0.157784 0)
(-0.241185 0.197067 0)
(-0.306171 0.234368 0)
(-0.37324 0.266636 0)
(-0.439224 0.291336 0)
(-0.501523 0.306909 0)
(-0.558296 0.312825 0)
(-0.608435 0.30938 0)
(-0.651438 0.297409 0)
(-0.687283 0.278045 0)
(-0.716334 0.25253 0)
(-0.739243 0.222099 0)
(-0.756857 0.187876 0)
(-0.770101 0.150814 0)
(-0.779882 0.111656 0)
(-0.786997 0.0709357 0)
(-0.792084 0.0290152 0)
(-0.795604 -0.0138653 0)
(-0.797823 -0.0575433 0)
(-0.798777 -0.101884 0)
(-0.798162 -0.14665 0)
(-0.795353 -0.191391 0)
(-0.789307 -0.235324 0)
(-0.778521 -0.277201 0)
(-0.761046 -0.315199 0)
(-0.734612 -0.346877 0)
(-0.696922 -0.369276 0)
(-0.64613 -0.379221 0)
(-0.581482 -0.373878 0)
(-0.503988 -0.351531 0)
(-0.416922 -0.312417 0)
(-0.325851 -0.259362 0)
(-0.23793 -0.197787 0)
(-0.160355 -0.134769 0)
(-0.0983135 -0.0771551 0)
(-0.0533769 -0.0294998 0)
(-0.0236288 0.00677133 0)
(-0.00559951 0.0323731 0)
(0.0035856 0.0482372 0)
(0.00643862 0.0552078 0)
(0.00527802 0.0535602 0)
(0.00248295 0.0423593 0)
(0.000208851 0.0191502 0)
(-0.000174585 -0.0137682 0)
(-0.0079835 -0.0117854 0)
(-0.024157 0.0102654 0)
(-0.0484913 0.0435833 0)
(-0.0813036 0.0827332 0)
(-0.123229 0.125497 0)
(-0.1744 0.170941 0)
(-0.233739 0.217463 0)
(-0.298775 0.262206 0)
(-0.366169 0.301717 0)
(-0.432501 0.332936 0)
(-0.494867 0.353856 0)
(-0.551157 0.363679 0)
(-0.600075 0.362633 0)
(-0.641046 0.351668 0)
(-0.674105 0.332163 0)
(-0.699785 0.305692 0)
(-0.718994 0.273846 0)
(-0.732862 0.238078 0)
(-0.742587 0.199603 0)
(-0.749307 0.159341 0)
(-0.75401 0.117918 0)
(-0.757495 0.0757031 0)
(-0.760365 0.0328675 0)
(-0.763071 -0.0105479 0)
(-0.765915 -0.0545863 0)
(-0.769021 -0.0993424 0)
(-0.77231 -0.144874 0)
(-0.775466 -0.191107 0)
(-0.777805 -0.237733 0)
(-0.778152 -0.284058 0)
(-0.77472 -0.328812 0)
(-0.765053 -0.369972 0)
(-0.746131 -0.404654 0)
(-0.714701 -0.429182 0)
(-0.667907 -0.439451 0)
(-0.604166 -0.431665 0)
(-0.524148 -0.403396 0)
(-0.431533 -0.354792 0)
(-0.333139 -0.2895 0)
(-0.238006 -0.214722 0)
(-0.155274 -0.139867 0)
(-0.0913038 -0.0737593 0)
(-0.0474485 -0.0216448 0)
(-0.0204648 0.0157183 0)
(-0.0054982 0.0400486 0)
(0.00118748 0.0527301 0)
(0.00266422 0.0543521 0)
(0.00160224 0.044179 0)
(0.000183706 0.020159 0)
(-0.00107596 -0.00813644 0)
(-0.0144356 0.00346832 0)
(-0.0374036 0.0342227 0)
(-0.0690943 0.0761386 0)
(-0.109562 0.124238 0)
(-0.159057 0.176059 0)
(-0.216831 0.229621 0)
(-0.280719 0.281963 0)
(-0.347444 0.329266 0)
(-0.413394 0.367866 0)
(-0.475342 0.395136 0)
(-0.530851 0.409837 0)
(-0.578376 0.41201 0)
(-0.617226 0.402661 0)
(-0.647461 0.383417 0)
(-0.669771 0.356224 0)
(-0.685303 0.323085 0)
(-0.695456 0.285837 0)
(-0.701665 0.245999 0)
(-0.705231 0.204699 0)
(-0.707234 0.162676 0)
(-0.708497 0.120344 0)
(-0.709609 0.0778645 0)
(-0.710974 0.0352343 0)
(-0.712897 -0.00765208 0)
(-0.715629 -0.050955 0)
(-0.719309 -0.0948705 0)
(-0.724051 -0.139604 0)
(-0.729868 -0.185327 0)
(-0.736575 -0.232118 0)
(-0.743624 -0.279844 0)
(-0.749904 -0.327963 0)
(-0.753513 -0.37527 0)
(-0.751614 -0.419594 0)
(-0.740471 -0.457584 0)
(-0.715817 -0.484715 0)
(-0.673655 -0.495719 0)
(-0.611446 -0.48555 0)
(-0.52947 -0.450862 0)
(-0.431916 -0.391713 0)
(-0.3271 -0.31289 0)
(-0.226236 -0.223972 0)
(-0.140514 -0.137312 0)
(-0.0771576 -0.0639398 0)
(-0.0366249 -0.00940626 0)
(-0.0138058 0.0267296 0)
(-0.00264243 0.0470918 0)
(0.00129489 0.0532088 0)
(0.00144381 0.0449919 0)
(0.000288062 0.020935 0)
(-0.00218324 0.00135359 0)
(-0.021445 0.0251032 0)
(-0.0510531 0.0651599 0)
(-0.0895414 0.11585 0)
(-0.136593 0.172724 0)
(-0.191847 0.232665 0)
(-0.253599 0.292417 0)
(-0.318839 0.347849 0)
(-0.383897 0.394658 0)
(-0.445257 0.429428 0)
(-0.500118 0.450261 0)
(-0.546628 0.45682 0)
(-0.583912 0.45005 0)
(-0.612 0.431784 0)
(-0.631695 0.404352 0)
(-0.644361 0.370214 0)
(-0.65165 0.331651 0)
(-0.655222 0.290535 0)
(-0.656529 0.248224 0)
(-0.656699 0.205573 0)
(-0.656518 0.163025 0)
(-0.656483 0.120731 0)
(-0.65687 0.0786588 0)
(-0.657819 0.0366813 0)
(-0.65944 -0.00537312 0)
(-0.661878 -0.0476831 0)
(-0.665235 -0.0904292 0)
(-0.669697 -0.133811 0)
(-0.675484 -0.178063 0)
(-0.682796 -0.223446 0)
(-0.691698 -0.2702 0)
(-0.701924 -0.31842 0)
(-0.71259 -0.367819 0)
(-0.721854 -0.417354 0)
(-0.72662 -0.464778 0)
(-0.722476 -0.506239 0)
(-0.704083 -0.536195 0)
(-0.666181 -0.547917 0)
(-0.605183 -0.534793 0)
(-0.521029 -0.492393 0)
(-0.41867 -0.420872 0)
(-0.308328 -0.32678 0)
(-0.203719 -0.222988 0)
(-0.117996 -0.125513 0)
(-0.0584847 -0.04748 0)
(-0.023668 0.00615851 0)
(-0.00620544 0.0376954 0)
(0.000670702 0.050342 0)
(0.00180667 0.0453235 0)
(0.000485581 0.021861 0)
(-0.0033608 0.0149335 0)
(-0.0283643 0.0529155 0)
(-0.0639854 0.102449 0)
(-0.108224 0.161631 0)
(-0.160282 0.226466 0)
(-0.219082 0.29289 0)
(-0.282098 0.356387 0)
(-0.345811 0.412031 0)
(-0.40652 0.455492 0)
(-0.461064 0.483957 0)
(-0.507218 0.49645 0)
(-0.543836 0.493649 0)
(-0.570824 0.477474 0)
(-0.589014 0.450605 0)
(-0.599931 0.415997 0)
(-0.605452 0.376442 0)
(-0.607458 0.334234 0)
(-0.607557 0.291014 0)
(-0.606932 0.24777 0)
(-0.606333 0.204965 0)
(-0.606149 0.162711 0)
(-0.606522 0.120921 0)
(-0.607451 0.0794303 0)
(-0.60887 0.0380567 0)
(-0.610736 -0.00336406 0)
(-0.613098 -0.0449635 0)
(-0.616006 -0.0868475 0)
(-0.619608 -0.129126 0)
(-0.62415 -0.17196 0)
(-0.629972 -0.215585 0)
(-0.637471 -0.260341 0)
(-0.646996 -0.306646 0)
(-0.658641 -0.354881 0)
(-0.671874 -0.405105 0)
(-0.68505 -0.456547 0)
(-0.694923 -0.506937 0)
(-0.696425 -0.551854 0)
(-0.683066 -0.584488 0)
(-0.648214 -0.596269 0)
(-0.58722 -0.578676 0)
(-0.499909 -0.526157 0)
(-0.39249 -0.439474 0)
(-0.277696 -0.328044 0)
(-0.172085 -0.209336 0)
(-0.090304 -0.103656 0)
(-0.0383422 -0.0253593 0)
(-0.0113542 0.0228364 0)
(-0.000164959 0.0453117 0)
(0.00229266 0.0453173 0)
(0.000720136 0.0231416 0)
(-0.00444476 0.0324489 0)
(-0.0345413 0.086238 0)
(-0.0751442 0.145031 0)
(-0.123715 0.211972 0)
(-0.178915 0.283427 0)
(-0.238985 0.354258 0)
(-0.300817 0.418904 0)
(-0.360719 0.472063 0)
(-0.415231 0.509766 0)
(-0.46172 0.530062 0)
(-0.498662 0.533051 0)
(-0.52571 0.520519 0)
(-0.543603 0.495389 0)
(-0.553924 0.461102 0)
(-0.558721 0.421026 0)
(-0.560083 0.377981 0)
(-0.559786 0.333979 0)
(-0.559095 0.2902 0)
(-0.55875 0.247153 0)
(-0.559061 0.2049 0)
(-0.560059 0.163278 0)
(-0.561633 0.122055 0)
(-0.563625 0.081014 0)
(-0.565881 0.0399855 0)
(-0.568298 -0.00114765 0)
(-0.570876 -0.0424522 0)
(-0.573637 -0.0839596 0)
(-0.57664 -0.12569 0)
(-0.580048 -0.167689 0)
(-0.584124 -0.210068 0)
(-0.589271 -0.253053 0)
(-0.59603 -0.297047 0)
(-0.605016 -0.342653 0)
(-0.616705 -0.390576 0)
(-0.630993 -0.441301 0)
(-0.646535 -0.494423 0)
(-0.659993 -0.547661 0)
(-0.665611 -0.595866 0)
(-0.655627 -0.63058 0)
(-0.621944 -0.640897 0)
(-0.558979 -0.616061 0)
(-0.466938 -0.54963 0)
(-0.354114 -0.444041 0)
(-0.236572 -0.313364 0)
(-0.133862 -0.181309 0)
(-0.0609133 -0.0724988 0)
(-0.020072 -0.000275133 0)
(-0.00228063 0.036882 0)
(0.0024638 0.0445875 0)
(0.000939152 0.0247367 0)
(-0.00528689 0.0533359 0)
(-0.0394155 0.12401 0)
(-0.0836725 0.191532 0)
(-0.134952 0.265139 0)
(-0.191375 0.341529 0)
(-0.250637 0.414543 0)
(-0.309323 0.477888 0)
(-0.363838 0.526273 0)
(-0.411156 0.556405 0)
(-0.449293 0.567389 0)
(-0.477504 0.560524 0)
(-0.496269 0.538741 0)
(-0.507084 0.505883 0)
(-0.512078 0.465936 0)
(-0.513511 0.42236 0)
(-0.513342 0.377677 0)
(-0.512959 0.33337 0)
(-0.513136 0.290052 0)
(-0.514143 0.247764 0)
(-0.515933 0.206261 0)
(-0.518315 0.16523 0)
(-0.521072 0.124401 0)
(-0.524022 0.0835791 0)
(-0.527027 0.0426471 0)
(-0.529999 0.00154275 0)
(-0.53294 -0.0397526 0)
(-0.535872 -0.0812265 0)
(-0.538784 -0.122854 0)
(-0.541735 -0.164604 0)
(-0.544838 -0.206469 0)
(-0.548316 -0.248506 0)
(-0.552565 -0.290913 0)
(-0.558205 -0.334139 0)
(-0.566073 -0.37896 0)
(-0.577019 -0.426439 0)
(-0.591409 -0.477557 0)
(-0.608237 -0.532329 0)
(-0.624061 -0.588407 0)
(-0.6323 -0.63959 0)
(-0.623729 -0.675193 0)
(-0.588745 -0.681344 0)
(-0.521196 -0.644856 0)
(-0.422568 -0.559165 0)
(-0.304472 -0.430361 0)
(-0.187198 -0.279792 0)
(-0.0928145 -0.138987 0)
(-0.0339688 -0.0352508 0)
(-0.00651494 0.0231092 0)
(0.00200518 0.0422647 0)
(0.00111522 0.0263962 0)
(-0.00576617 0.0766875 0)
(-0.0425759 0.164898 0)
(-0.088999 0.240404 0)
(-0.141321 0.319359 0)
(-0.197186 0.398875 0)
(-0.253929 0.471951 0)
(-0.308075 0.531896 0)
(-0.35633 0.573769 0)
(-0.396226 0.595191 0)
(-0.426494 0.596471 0)
(-0.447176 0.580162 0)
(-0.459499 0.550284 0)
(-0.465522 0.511398 0)
(-0.467612 0.467711 0)
(-0.467915 0.422431 0)
(-0.467991 0.377518 0)
(-0.468708 0.333809 0)
(-0.470349 0.291375 0)
(-0.472826 0.249907 0)
(-0.475891 0.209005 0)
(-0.479284 0.168331 0)
(-0.482808 0.12766 0)
(-0.48634 0.0868656 0)
(-0.489803 0.0458869 0)
(-0.493162 0.00470336 0)
(-0.496447 -0.0366808 0)
(-0.499688 -0.0782428 0)
(-0.502852 -0.119957 0)
(-0.505932 -0.161773 0)
(-0.508924 -0.203628 0)
(-0.511867 -0.245465 0)
(-0.514901 -0.287281 0)
(-0.518364 -0.32923 0)
(-0.522906 -0.371783 0)
(-0.529538 -0.415888 0)
(-0.539479 -0.463001 0)
(-0.553567 -0.514668 0)
(-0.571118 -0.571345 0)
(-0.588438 -0.630409 0)
(-0.597841 -0.684034 0)
(-0.588375 -0.718423 0)
(-0.549016 -0.716025 0)
(-0.47382 -0.661414 0)
(-0.367019 -0.549682 0)
(-0.24514 -0.393884 0)
(-0.133263 -0.226036 0)
(-0.054026 -0.0858652 0)
(-0.0133578 0.0015801 0)
(0.000765557 0.0371697 0)
(0.00125224 0.0277614 0)
(-0.0058074 0.101369 0)
(-0.0437913 0.207421 0)
(-0.0908621 0.290072 0)
(-0.142657 0.372983 0)
(-0.196446 0.453886 0)
(-0.249392 0.525186 0)
(-0.298164 0.580115 0)
(-0.339902 0.614347 0)
(-0.372757 0.626595 0)
(-0.396177 0.618453 0)
(-0.410913 0.593702 0)
(-0.418763 0.557282 0)
(-0.422072 0.514175 0)
(-0.423141 0.468463 0)
(-0.423747 0.422816 0)
(-0.424928 0.378492 0)
(-0.427049 0.335707 0)
(-0.430027 0.294121 0)
(-0.433583 0.253242 0)
(-0.437421 0.212652 0)
(-0.441326 0.17208 0)
(-0.445181 0.131386 0)
(-0.448944 0.0905133 0)
(-0.452604 0.0494472 0)
(-0.456167 0.00818682 0)
(-0.459694 -0.033262 0)
(-0.463224 -0.0748863 0)
(-0.46673 -0.116681 0)
(-0.470185 -0.158613 0)
(-0.473541 -0.200628 0)
(-0.476734 -0.242639 0)
(-0.479718 -0.28454 0)
(-0.482535 -0.326264 0)
(-0.485441 -0.367903 0)
(-0.489082 -0.409938 0)
(-0.494631 -0.453512 0)
(-0.503668 -0.500539 0)
(-0.517494 -0.553216 0)
(-0.535629 -0.612383 0)
(-0.553811 -0.674688 0)
(-0.562777 -0.729689 0)
(-0.549552 -0.759245 0)
(-0.50211 -0.741506 0)
(-0.416149 -0.659936 0)
(-0.300791 -0.514776 0)
(-0.17917 -0.331077 0)
(-0.0804651 -0.154828 0)
(-0.0231552 -0.0304995 0)
(-0.00128817 0.0279729 0)
(0.00136959 0.0284558 0)
(-0.00538775 0.126139 0)
(-0.0430067 0.250071 0)
(-0.0892828 0.339045 0)
(-0.139172 0.424592 0)
(-0.189688 0.505359 0)
(-0.237993 0.573443 0)
(-0.281042 0.622271 0)
(-0.31648 0.648335 0)
(-0.343083 0.651544 0)
(-0.360947 0.634784 0)
(-0.37138 0.602944 0)
(-0.376512 0.561631 0)
(-0.378698 0.51592 0)
(-0.379937 0.469469 0)
(-0.381512 0.424242 0)
(-0.383959 0.380799 0)
(-0.387264 0.338862 0)
(-0.391145 0.297853 0)
(-0.395281 0.257248 0)
(-0.399434 0.216704 0)
(-0.40348 0.176055 0)
(-0.407391 0.135244 0)
(-0.411189 0.0942681 0)
(-0.414905 0.0531343 0)
(-0.418563 0.0118439 0)
(-0.422237 -0.0296073 0)
(-0.425976 -0.0712209 0)
(-0.429766 -0.113015 0)
(-0.433583 -0.154987 0)
(-0.437384 -0.197114 0)
(-0.44109 -0.239338 0)
(-0.444584 -0.281551 0)
(-0.447743 -0.323604 0)
(-0.45051 -0.365352 0)
(-0.453057 -0.406822 0)
(-0.456026 -0.448517 0)
(-0.460761 -0.49183 0)
(-0.469228 -0.539265 0)
(-0.483153 -0.593765 0)
(-0.50201 -0.656342 0)
(-0.520407 -0.72203 0)
(-0.526828 -0.776169 0)
(-0.50614 -0.794737 0)
(-0.4464 -0.751606 0)
(-0.347352 -0.632155 0)
(-0.225745 -0.447911 0)
(-0.112234 -0.242443 0)
(-0.0363815 -0.0761183 0)
(-0.00422958 0.0131762 0)
(0.00145872 0.0280704 0)
(-0.00453224 0.149757 0)
(-0.0403159 0.291413 0)
(-0.0845052 0.386005 0)
(-0.131351 0.473041 0)
(-0.177726 0.552462 0)
(-0.220923 0.616338 0)
(-0.258275 0.658507 0)
(-0.287951 0.67641 0)
(-0.309295 0.671184 0)
(-0.322928 0.646937 0)
(-0.330517 0.609469 0)
(-0.334283 0.564769 0)
(-0.336371 0.517706 0)
(-0.338347 0.471317 0)
(-0.341008 0.426826 0)
(-0.344494 0.384202 0)
(-0.348573 0.342842 0)
(-0.35291 0.302093 0)
(-0.357242 0.261498 0)
(-0.361427 0.220832 0)
(-0.365432 0.180025 0)
(-0.369292 0.139081 0)
(-0.373067 0.0980246 0)
(-0.376803 0.0568643 0)
(-0.380522 0.0155926 0)
(-0.384295 -0.025808 0)
(-0.388178 -0.0673513 0)
(-0.392165 -0.109073 0)
(-0.39624 -0.150993 0)
(-0.400382 -0.193123 0)
(-0.404533 -0.235447 0)
(-0.408593 -0.277907 0)
(-0.412407 -0.320378 0)
(-0.415782 -0.362658 0)
(-0.418574 -0.404524 0)
(-0.42088 -0.445935 0)
(-0.423368 -0.487459 0)
(-0.42761 -0.530875 0)
(-0.436012 -0.579487 0)
(-0.450628 -0.63706 0)
(-0.470414 -0.704225 0)
(-0.487952 -0.772758 0)
(-0.488713 -0.82142 0)
(-0.455822 -0.818868 0)
(-0.379696 -0.73651 0)
(-0.267676 -0.568057 0)
(-0.146773 -0.345765 0)
(-0.0533508 -0.137484 0)
(-0.00822359 -0.00884958 0)
(0.0014717 0.02615 0)
(-0.00330376 0.171083 0)
(-0.0359218 0.330151 0)
(-0.0769231 0.429844 0)
(-0.119841 0.517476 0)
(-0.161503 0.594693 0)
(-0.199427 0.653815 0)
(-0.231364 0.689242 0)
(-0.255978 0.699419 0)
(-0.273088 0.68668 0)
(-0.283678 0.656213 0)
(-0.289571 0.614497 0)
(-0.292875 0.567628 0)
(-0.29539 0.520055 0)
(-0.29823 0.474113 0)
(-0.301789 0.430356 0)
(-0.305957 0.388317 0)
(-0.310422 0.347234 0)
(-0.314892 0.306491 0)
(-0.3192 0.265747 0)
(-0.323296 0.224889 0)
(-0.327213 0.183919 0)
(-0.331018 0.142873 0)
(-0.334783 0.101776 0)
(-0.338551 0.0606297 0)
(-0.342336 0.0194126 0)
(-0.346195 -0.021905 0)
(-0.350192 -0.063345 0)
(-0.354322 -0.104955 0)
(-0.358572 -0.146768 0)
(-0.362935 -0.188817 0)
(-0.367383 -0.23112 0)
(-0.371856 -0.273674 0)
(-0.376235 -0.316418 0)
(-0.380335 -0.359205 0)
(-0.383902 -0.401775 0)
(-0.386716 -0.443815 0)
(-0.388827 -0.485232 0)
(-0.390993 -0.52676 0)
(-0.395128 -0.570813 0)
(-0.404144 -0.6218 0)
(-0.420185 -0.684228 0)
(-0.440835 -0.757067 0)
(-0.455397 -0.826016 0)
(-0.44585 -0.860238 0)
(-0.395269 -0.820924 0)
(-0.300423 -0.682684 0)
(-0.180544 -0.459135 0)
(-0.0735158 -0.214949 0)
(-0.0135154 -0.0398848 0)
(0.00138691 0.0222148 0)
(-0.00179142 0.189139 0)
(-0.0300964 0.365172 0)
(-0.0670107 0.469681 0)
(-0.105353 0.5573 0)
(-0.141975 0.631817 0)
(-0.174672 0.686045 0)
(-0.20162 0.715036 0)
(-0.221913 0.718235 0)
(-0.235724 0.699073 0)
(-0.244231 0.663638 0)
(-0.249232 0.618853 0)
(-0.252583 0.570705 0)
(-0.255691 0.523102 0)
(-0.25927 0.4777 0)
(-0.263432 0.43451 0)
(-0.267947 0.392791 0)
(-0.272517 0.351744 0)
(-0.276937 0.310851 0)
(-0.281129 0.269894 0)
(-0.285113 0.228845 0)
(-0.288954 0.187747 0)
(-0.292731 0.146642 0)
(-0.296511 0.105546 0)
(-0.30033 0.0644472 0)
(-0.30419 0.0233098 0)
(-0.308134 -0.0179057 0)
(-0.312235 -0.0592255 0)
(-0.316491 -0.100706 0)
(-0.320879 -0.142388 0)
(-0.325402 -0.184314 0)
(-0.330048 -0.226525 0)
(-0.334787 -0.269049 0)
(-0.33955 -0.311891 0)
(-0.344209 -0.354985 0)
(-0.348544 -0.398151 0)
(-0.352246 -0.441051 0)
(-0.35503 -0.483273 0)
(-0.356949 -0.524719 0)
(-0.358971 -0.566498 0)
(-0.36352 -0.612068 0)
(-0.374039 -0.667311 0)
(-0.392197 -0.736878 0)
(-0.412774 -0.815395 0)
(-0.420389 -0.878129 0)
(-0.394184 -0.881952 0)
(-0.321099 -0.784298 0)
(-0.209991 -0.575507 0)
(-0.0952836 -0.306481 0)
(-0.0203279 -0.0815993 0)
(0.00124635 0.015782 0)
(-9.94754e-05 0.20315 0)
(-0.0231463 0.395553 0)
(-0.055266 0.504843 0)
(-0.0885867 0.592139 0)
(-0.120029 0.66379 0)
(-0.147679 0.713326 0)
(-0.170112 0.736489 0)
(-0.186774 0.733654 0)
(-0.198061 0.709208 0)
(-0.205191 0.669942 0)
(-0.209798 0.623022 0)
(-0.213414 0.57418 0)
(-0.217065 0.526759 0)
(-0.221157 0.481824 0)
(-0.225634 0.438987 0)
(-0.230243 0.397364 0)
(-0.234749 0.3562 0)
(-0.239032 0.31509 0)
(-0.243086 0.273918 0)
(-0.246969 0.232714 0)
(-0.250758 0.191535 0)
(-0.254525 0.150414 0)
(-0.258331 0.109353 0)
(-0.262206 0.0683274 0)
(-0.266143 0.0272896 0)
(-0.270169 -0.0138081 0)
(-0.274371 -0.0549942 0)
(-0.278753 -0.0963348 0)
(-0.283278 -0.137874 0)
(-0.28795 -0.17966 0)
(-0.292761 -0.221744 0)
(-0.297698 -0.264174 0)
(-0.302725 -0.306991 0)
(-0.307768 -0.350202 0)
(-0.312679 -0.393728 0)
(-0.317199 -0.437331 0)
(-0.320964 -0.480567 0)
(-0.323644 -0.52292 0)
(-0.325383 -0.564413 0)
(-0.327548 -0.606916 0)
(-0.333286 -0.655578 0)
(-0.346399 -0.717931 0)
(-0.366856 -0.796859 0)
(-0.384554 -0.877624 0)
(-0.378695 -0.919581 0)
(-0.328771 -0.867793 0)
(-0.232367 -0.687881 0)
(-0.116505 -0.4081 0)
(-0.0286604 -0.135138 0)
(0.0011123 0.00634185 0)
(0.00166244 0.21256 0)
(-0.0153881 0.420565 0)
(-0.0421713 0.534841 0)
(-0.070186 0.621786 0)
(-0.0964346 0.690689 0)
(-0.119279 0.736009 0)
(-0.137656 0.754162 0)
(-0.151273 0.746338 0)
(-0.160628 0.717713 0)
(-0.166854 0.675595 0)
(-0.171329 0.627233 0)
(-0.175239 0.578043 0)
(-0.179282 0.530845 0)
(-0.183651 0.486232 0)
(-0.188214 0.443553 0)
(-0.192748 0.401873 0)
(-0.197096 0.360515 0)
(-0.201209 0.31918 0)
(-0.205127 0.277827 0)
(-0.208921 0.236514 0)
(-0.212667 0.195297 0)
(-0.216425 0.154196 0)
(-0.22025 0.113197 0)
(-0.224172 0.072266 0)
(-0.228177 0.031348 0)
(-0.232275 -0.00961352 0)
(-0.236574 -0.0506475 0)
(-0.241089 -0.0918322 0)
(-0.245762 -0.133215 0)
(-0.250596 -0.17485 0)
(-0.255585 -0.216791 0)
(-0.260716 -0.259096 0)
(-0.265971 -0.301825 0)
(-0.271309 -0.345029 0)
(-0.276641 -0.38871 0)
(-0.281791 -0.432754 0)
(-0.286452 -0.476829 0)
(-0.2902 -0.520345 0)
(-0.292708 -0.56272 0)
(-0.294362 -0.604377 0)
(-0.297209 -0.648659 0)
(-0.305289 -0.703213 0)
(-0.322038 -0.776503 0)
(-0.343451 -0.864952 0)
(-0.352348 -0.936531 0)
(-0.324241 -0.930778 0)
(-0.246156 -0.790402 0)
(-0.135134 -0.514771 0)
(-0.0381244 -0.200274 0)
(0.000963139 -0.00657299 0)
(0.00338849 0.217062 0)
(-0.00713073 0.439624 0)
(-0.0281747 0.559334 0)
(-0.0507132 0.646154 0)
(-0.0718303 0.712663 0)
(-0.090122 0.75444 0)
(-0.104839 0.76853 0)
(-0.115869 0.756796 0)
(-0.123709 0.72502 0)
(-0.129314 0.680859 0)
(-0.133757 0.63155 0)
(-0.13789 0.582187 0)
(-0.142148 0.535159 0)
(-0.14659 0.490714 0)
(-0.151071 0.448044 0)
(-0.155427 0.406219 0)
(-0.159568 0.364648 0)
(-0.163498 0.323115 0)
(-0.167278 0.281624 0)
(-0.170983 0.240247 0)
(-0.174677 0.19903 0)
(-0.178413 0.157976 0)
(-0.182239 0.117062 0)
(-0.186189 0.0762476 0)
(-0.190248 0.0354729 0)
(-0.194403 -0.00532686 0)
(-0.19879 -0.046184 0)
(-0.203444 -0.0871886 0)
(-0.208279 -0.128396 0)
(-0.213297 -0.169862 0)
(-0.218488 -0.211644 0)
(-0.223842 -0.253804 0)
(-0.229342 -0.296411 0)
(-0.234964 -0.339539 0)
(-0.240654 -0.383243 0)
(-0.246302 -0.427508 0)
(-0.25169 -0.472143 0)
(-0.256447 -0.516668 0)
(-0.2601 -0.560317 0)
(-0.26242 -0.602589 0)
(-0.264292 -0.644917 0)
(-0.268811 -0.693262 0)
(-0.280757 -0.758301 0)
(-0.301285 -0.846066 0)
(-0.319093 -0.937185 0)
(-0.309534 -0.973321 0)
(-0.25111 -0.878954 0)
(-0.149691 -0.621376 0)
(-0.0479922 -0.275256 0)
(0.000659815 -0.0234045 0)
(0.00493725 0.216469 0)
(0.00132096 0.452391 0)
(-0.0136752 0.578064 0)
(-0.0306483 0.665233 0)
(-0.046728 0.729876 0)
(-0.0606935 0.768917 0)
(-0.0720605 0.779967 0)
(-0.0808282 0.765389 0)
(-0.0874184 0.731395 0)
(-0.0925457 0.685854 0)
(-0.0969597 0.63594 0)
(-0.101204 0.586475 0)
(-0.105514 0.539525 0)
(-0.109872 0.495112 0)
(-0.114157 0.452351 0)
(-0.118266 0.410345 0)
(-0.12217 0.368576 0)
(-0.125904 0.326885 0)
(-0.129537 0.285304 0)
(-0.133136 0.243902 0)
(-0.13676 0.202715 0)
(-0.140451 0.161734 0)
(-0.144254 0.120928 0)
(-0.148211 0.0802519 0)
(-0.152309 0.0396496 0)
(-0.156503 -0.000952363 0)
(-0.160964 -0.0416037 0)
(-0.165758 -0.082394 0)
(-0.170767 -0.123396 0)
(-0.175988 -0.164667 0)
(-0.181412 -0.206268 0)
(-0.187023 -0.248261 0)
(-0.192808 -0.290719 0)
(-0.198746 -0.333728 0)
(-0.204802 -0.377376 0)
(-0.210905 -0.421713 0)
(-0.216907 -0.466669 0)
(-0.22253 -0.511919 0)
(-0.227334 -0.556763 0)
(-0.23084 -0.600295 0)
(-0.233103 -0.642516 0)
(-0.235921 -0.687055 0)
(-0.243737 -0.743989 0)
(-0.26091 -0.825649 0)
(-0.282569 -0.926494 0)
(-0.287296 -0.997344 0)
(-0.247995 -0.951288 0)
(-0.159442 -0.723425 0)
(-0.0574344 -0.357331 0)
(-6.0897e-06 -0.0445757 0)
(0.00615438 0.211014 0)
(0.00960395 0.458423 0)
(0.00100361 0.590944 0)
(-0.0103905 0.679031 0)
(-0.0215329 0.742482 0)
(-0.0313483 0.779673 0)
(-0.0395792 0.788728 0)
(-0.0462869 0.772342 0)
(-0.0517674 0.736976 0)
(-0.0564632 0.690606 0)
(-0.0607982 0.64033 0)
(-0.0650412 0.590774 0)
(-0.0692686 0.543802 0)
(-0.073428 0.499314 0)
(-0.0774378 0.456402 0)
(-0.0812553 0.414212 0)
(-0.0848957 0.372277 0)
(-0.0884135 0.330474 0)
(-0.0918761 0.288846 0)
(-0.0953454 0.247456 0)
(-0.0988712 0.206328 0)
(-0.102492 0.165446 0)