/*--------------------------------*- C++ -*----------------------------------*\
  =========                 |
  \\      /  F ield         | OpenFOAM: The Open Source CFD Toolbox
   \\    /   O peration     | Website:  https://openfoam.org
    \\  /    A nd           | Version:  7
     \\/     M anipulation  |
\*---------------------------------------------------------------------------*/
FoamFile
{
    version     2.0;
    format      ascii;
    class       volScalarField;
    location    "1750";
    object      p;
}
// * * * * * * * * * * * * * * * * * * * * * * * * * * * * * * * * * * * * * //

dimensions      [0 2 -2 0 0 0 0];

internalField   nonuniform List<scalar> 
2500
(
2.84019e-08
7.08288e-05
-9.12045e-06
-0.000307941
-0.000782331
-0.00136986
-0.00203036
-0.00275928
-0.00358232
-0.00454015
-0.00567283
-0.00701024
-0.00856929
-0.0103497
-0.0123281
-0.0144502
-0.0166241
-0.0187181
-0.0205672
-0.0219895
-0.0228103
-0.0228901
-0.0221537
-0.0206176
-0.0184077
-0.0157504
-0.012967
-0.0104751
-0.0087364
-0.00818851
-0.00916421
-0.0118
-0.0159833
-0.0214184
-0.0276457
-0.0341037
-0.0402636
-0.0457248
-0.0502564
-0.0537834
-0.0563562
-0.0581095
-0.059218
-0.0598577
-0.0601804
-0.0603024
-0.0603014
-0.06022
-0.0600807
-0.0599415
-6.929e-05
3.5024e-06
-8.03123e-05
-0.000376771
-0.000829157
-0.00137332
-0.00197412
-0.00263301
-0.00337858
-0.00425112
-0.00528948
-0.00652359
-0.00797415
-0.0096489
-0.0115362
-0.0135993
-0.0157673
-0.0179287
-0.0199307
-0.0215895
-0.022713
-0.0231312
-0.0227304
-0.0214863
-0.0194942
-0.016971
-0.0142538
-0.0117782
-0.0100247
-0.00945028
-0.0104031
-0.0130422
-0.0172833
-0.0227765
-0.0290197
-0.0354647
-0.0415572
-0.0468565
-0.0511236
-0.0543318
-0.0565989
-0.0581065
-0.0590482
-0.0595967
-0.0598881
-0.0600198
-0.0600536
-0.060019
-0.0599175
-0.0597858
-1.93417e-05
4.93471e-05
-5.75703e-05
-0.000380041
-0.00083245
-0.00133904
-0.00186963
-0.00243701
-0.00308225
-0.00385289
-0.00479304
-0.00594306
-0.00734097
-0.00902122
-0.0110038
-0.0132775
-0.0157822
-0.0183961
-0.0209368
-0.0231781
-0.0248806
-0.0258305
-0.0258763
-0.0249672
-0.0231953
-0.0207881
-0.0180824
-0.0155123
-0.0135703
-0.0127364
-0.0133923
-0.0157362
-0.0197228
-0.0250501
-0.031209
-0.0375783
-0.0435803
-0.0487729
-0.0528758
-0.0558236
-0.0577466
-0.0588905
-0.059509
-0.0598067
-0.0599281
-0.0599629
-0.0599576
-0.0599221
-0.0598262
-0.0596819
0.000227841
0.000265905
0.000101464
-0.000279839
-0.000755639
-0.00123697
-0.00170287
-0.00218544
-0.00274574
-0.00345482
-0.00438604
-0.00561888
-0.00723816
-0.00932087
-0.0119099
-0.0149852
-0.0184436
-0.0220968
-0.0256892
-0.0289301
-0.031535
-0.0332643
-0.0339538
-0.0335398
-0.0320937
-0.0298184
-0.0270267
-0.0241397
-0.0216517
-0.0200695
-0.0198308
-0.021215
-0.0242704
-0.0287838
-0.0343049
-0.0402304
-0.0459379
-0.0509085
-0.0548472
-0.0576642
-0.0594111
-0.0602994
-0.0606107
-0.0606048
-0.0604662
-0.0603046
-0.0601703
-0.0600644
-0.0599344
-0.0597696
0.000707107
0.000677003
0.000417826
-4.4347e-05
-0.000555556
-0.00102945
-0.00146053
-0.00190875
-0.0024748
-0.00328062
-0.00446322
-0.00617042
-0.00854149
-0.011672
-0.0155763
-0.0201637
-0.0252378
-0.0305177
-0.0356733
-0.0403633
-0.044273
-0.0471454
-0.0488027
-0.0491593
-0.0482448
-0.0462061
-0.0433082
-0.0399352
-0.0365592
-0.0336966
-0.0318393
-0.0313744
-0.0325035
-0.0351838
-0.0391146
-0.0437904
-0.0486112
-0.0530164
-0.0566061
-0.0591933
-0.0608119
-0.0616182
-0.0618034
-0.0616181
-0.0612811
-0.0609358
-0.0606559
-0.0604543
-0.060278
-0.0601011
0.00146223
0.00132822
0.00094885
0.000397234
-0.000168925
-0.000675442
-0.00114698
-0.00169634
-0.00249278
-0.00374242
-0.00567089
-0.00849226
-0.0123622
-0.0173319
-0.0233214
-0.0301229
-0.0374268
-0.044862
-0.0520351
-0.0585656
-0.0641167
-0.0684184
-0.0712817
-0.0726073
-0.0723949
-0.0707292
-0.0678064
-0.063947
-0.0595608
-0.0551235
-0.0511361
-0.0480695
-0.046291
-0.0459866
-0.0471089
-0.0493744
-0.0523209
-0.0554188
-0.0582008
-0.0603575
-0.0617686
-0.062483
-0.0626647
-0.0624764
-0.0620898
-0.061664
-0.0612982
-0.0610298
-0.0608244
-0.060653
0.00253169
0.00226889
0.00176011
0.0011086
0.000451666
-0.000167558
-0.000837186
-0.00175286
-0.00318399
-0.0054407
-0.00882492
-0.013566
-0.0197608
-0.0273426
-0.036087
-0.0456454
-0.0555938
-0.065479
-0.0748586
-0.0833325
-0.0905664
-0.096304
-0.100371
-0.102679
-0.103223
-0.102053
-0.0992931
-0.0951802
-0.0900179
-0.0841771
-0.0780889
-0.0722218
-0.067034
-0.0629129
-0.06011
-0.0586837
-0.0584752
-0.0591455
-0.060267
-0.0614383
-0.0623715
-0.0629273
-0.0631047
-0.0629914
-0.0626916
-0.0623166
-0.061966
-0.0616972
-0.0615015
-0.0613563
0.00392186
0.00352293
0.00288391
0.00211021
0.00129498
0.000410484
-0.000728523
-0.00243118
-0.00508255
-0.00907669
-0.0147292
-0.0221964
-0.0314314
-0.04219
-0.0540729
-0.0665869
-0.079205
-0.0914171
-0.102768
-0.11288
-0.121467
-0.128329
-0.133339
-0.13644
-0.137646
-0.137018
-0.134628
-0.130624
-0.125187
-0.118547
-0.110994
-0.102879
-0.0946138
-0.0866526
-0.0794583
-0.0734318
-0.0688358
-0.0657338
-0.0639692
-0.0632097
-0.0630511
-0.0631325
-0.0632093
-0.063175
-0.0630256
-0.0628026
-0.0625688
-0.0623779
-0.0622377
-0.062137
0.00557804
0.00504989
0.00427563
0.00333725
0.00223919
0.000843244
-0.00116273
-0.00421468
-0.00878998
-0.015297
-0.0239656
-0.0347812
-0.0474828
-0.0616126
-0.076593
-0.0918073
-0.106667
-0.120661
-0.13338
-0.144525
-0.153899
-0.161392
-0.166947
-0.170543
-0.172225
-0.172089
-0.170183
-0.166583
-0.161373
-0.154657
-0.146561
-0.137256
-0.126987
-0.116101
-0.105066
-0.0944498
-0.0848721
-0.0768928
-0.0708737
-0.0668651
-0.0645886
-0.0635466
-0.0632052
-0.0631501
-0.0631507
-0.0631311
-0.0630865
-0.0630396
-0.0629946
-0.0629495
0.00734983
0.00670664
0.005786
0.00460101
0.00302293
0.000772924
-0.00260106
-0.0076399
-0.0148432
-0.0245284
-0.0367315
-0.0511871
-0.0673795
-0.0846377
-0.102241
-0.119509
-0.135868
-0.150879
-0.16424
-0.175768
-0.185379
-0.193051
-0.198792
-0.202618
-0.204591
-0.204838
-0.203396
-0.200304
-0.195596
-0.189293
-0.181404
-0.171941
-0.160956
-0.148579
-0.135085
-0.12095
-0.106884
-0.0937807
-0.0825614
-0.0739328
-0.068145
-0.0648976
-0.0634889
-0.0631276
-0.0632028
-0.0633844
-0.0635645
-0.0637024
-0.0637775
-0.0637921
0.00897927
0.00824003
0.00713753
0.00557295
0.00324923
-0.000266639
-0.00555003
-0.0131833
-0.0235842
-0.0368658
-0.0527827
-0.0707746
-0.0900761
-0.109851
-0.129314
-0.147815
-0.164877
-0.180196
-0.193612
-0.205064
-0.214561
-0.222149
-0.227875
-0.231778
-0.233923
-0.234437
-0.233352
-0.230699
-0.226498
-0.22074
-0.213386
-0.204368
-0.193602
-0.18102
-0.166638
-0.150655
-0.133566
-0.116237
-0.0998794
-0.085829
-0.0751582
-0.0682602
-0.0646909
-0.0634224
-0.06335
-0.0636932
-0.0640919
-0.0644276
-0.0646326
-0.0647075
0.0101129
0.00928249
0.00793101
0.00580957
0.00243354
-0.00277343
-0.0104593
-0.0211531
-0.0350784
-0.0520504
-0.0714943
-0.0925617
-0.114294
-0.135783
-0.156281
-0.175259
-0.192402
-0.207565
-0.220718
-0.231898
-0.24117
-0.248609
-0.254278
-0.258218
-0.26048
-0.261176
-0.26033
-0.257976
-0.254133
-0.248799
-0.241942
-0.233484
-0.223298
-0.211219
-0.197079
-0.180787
-0.162467
-0.142632
-0.122334
-0.103152
-0.0868832
-0.0749408
-0.0677424
-0.0645241
-0.0638079
-0.0641743
-0.0647699
-0.0652978
-0.0656349
-0.065773
0.0103219
0.00938614
0.00769455
0.00481736
8.68096e-05
-0.00717993
-0.0176259
-0.0316224
-0.0491032
-0.0695325
-0.0920095
-0.115456
-0.138819
-0.161227
-0.182068
-0.200995
-0.217866
-0.232679
-0.245499
-0.256413
-0.265506
-0.272853
-0.278509
-0.282505
-0.284874
-0.285706
-0.285015
-0.282832
-0.279183
-0.274082
-0.26752
-0.25945
-0.249772
-0.238324
-0.224879
-0.209182
-0.191042
-0.170512
-0.148143
-0.125222
-0.103763
-0.0860579
-0.0737848
-0.0671688
-0.0648919
-0.0649368
-0.0656815
-0.0663937
-0.0668711
-0.0670844
0.00916149
0.00809503
0.00596156
0.00214132
-0.00419016
-0.013765
-0.0271332
-0.0444162
-0.0651991
-0.0885903
-0.113416
-0.138465
-0.162702
-0.185391
-0.206114
-0.224713
-0.2412
-0.255666
-0.268223
-0.278971
-0.287986
-0.295326
-0.301029
-0.305112
-0.307589
-0.308536
-0.307953
-0.305869
-0.30231
-0.297299
-0.290845
-0.282937
-0.273528
-0.262511
-0.249702
-0.234828
-0.217555
-0.197599
-0.17495
-0.15024
-0.125072
-0.102004
-0.0838325
-0.072308
-0.0671208
-0.0661463
-0.0668776
-0.0677822
-0.0684244
-0.0687382
0.0062551
0.00502549
0.00235787
-0.00254723
-0.0106279
-0.0225988
-0.0388362
-0.0591494
-0.0827591
-0.108459
-0.134891
-0.16082
-0.185329
-0.207875
-0.228244
-0.246439
-0.262573
-0.276785
-0.289192
-0.299879
-0.308901
-0.316293
-0.322078
-0.32626
-0.328843
-0.329891
-0.329399
-0.327388
-0.32388
-0.318896
-0.312454
-0.304564
-0.295218
-0.284375
-0.271932
-0.257692
-0.241344
-0.222477
-0.200706
-0.175987
-0.149108
-0.122144
-0.0983213
-0.0808689
-0.0712356
-0.0681139
-0.0684308
-0.0695246
-0.0703676
-0.0708242
0.00136349
-5.99252e-05
-0.00332542
-0.00938711
-0.0192446
-0.0335319
-0.0523914
-0.0752954
-0.101126
-0.128436
-0.155785
-0.182014
-0.206383
-0.228559
-0.248503
-0.26633
-0.282202
-0.296263
-0.30861
-0.319302
-0.328371
-0.335834
-0.341704
-0.345978
-0.348653
-0.349787
-0.349378
-0.347437
-0.34398
-0.339023
-0.33258
-0.324666
-0.315293
-0.304459
-0.292135
-0.278227
-0.262533
-0.244693
-0.224207
-0.200593
-0.173814
-0.144967
-0.116821
-0.0933886
-0.0780642
-0.0713644
-0.070506
-0.0716865
-0.0727776
-0.0734334
-0.00556644
-0.00720477
-0.0110913
-0.0183017
-0.0298443
-0.0462225
-0.0673138
-0.0922636
-0.119672
-0.147942
-0.175643
-0.201758
-0.22575
-0.247473
-0.267014
-0.28455
-0.300248
-0.314231
-0.326567
-0.337287
-0.346405
-0.353928
-0.359864
-0.364209
-0.366958
-0.368163
-0.367828
-0.365957
-0.362562
-0.357651
-0.351235
-0.343323
-0.333926
-0.323058
-0.31073
-0.296928
-0.28157
-0.264435
-0.245106
-0.222968
-0.197442
-0.168598
-0.138102
-0.109724
-0.0882411
-0.0765744
-0.0734219
-0.0743701
-0.0757685
-0.0766721
-0.0143871
-0.0162473
-0.0207348
-0.0290125
-0.0420505
-0.0601909
-0.0830442
-0.109467
-0.137853
-0.166537
-0.194173
-0.219918
-0.243427
-0.264698
-0.283896
-0.301213
-0.316798
-0.330739
-0.343075
-0.353816
-0.362965
-0.370524
-0.376502
-0.380896
-0.383698
-0.384959
-0.384688
-0.382884
-0.379556
-0.374709
-0.36835
-0.360481
-0.351107
-0.34024
-0.327901
-0.314113
-0.298879
-0.282124
-0.263599
-0.242788
-0.218931
-0.191376
-0.160519
-0.129011
-0.101925
-0.0843884
-0.0776385
-0.0777364
-0.0794638
-0.0806524
-0.0247706
-0.0268439
-0.0318749
-0.0410823
-0.0553611
-0.0748824
-0.0990111
-0.126372
-0.155223
-0.183909
-0.211205
-0.236448
-0.259451
-0.28031
-0.299225
-0.316375
-0.331877
-0.345784
-0.35811
-0.368853
-0.378009
-0.385582
-0.39158
-0.396004
-0.398846
-0.400148
-0.399931
-0.398186
-0.394923
-0.390147
-0.383861
-0.376065
-0.36676
-0.355951
-0.34365
-0.329888
-0.314706
-0.298126
-0.280066
-0.260216
-0.23791
-0.212204
-0.182489
-0.149901
-0.118668
-0.0951832
-0.0836619
-0.0820157
-0.0839694
-0.0854873
-0.0362555
-0.0385182
-0.0440082
-0.0539749
-0.0692115
-0.0897265
-0.114677
-0.142518
-0.171441
-0.199844
-0.226645
-0.251339
-0.273858
-0.294356
-0.313036
-0.33005
-0.345476
-0.359341
-0.37164
-0.382364
-0.391509
-0.399078
-0.405082
-0.409524
-0.412394
-0.413727
-0.413554
-0.411861
-0.408657
-0.403948
-0.397738
-0.390028
-0.380818
-0.370108
-0.357903
-0.344223
-0.329114
-0.312638
-0.294831
-0.275585
-0.254472
-0.230601
-0.202839
-0.170932
-0.137502
-0.108902
-0.0919206
-0.0875016
-0.0893756
-0.0912963
-0.0483058
-0.0507216
-0.0565713
-0.0671159
-0.0830307
-0.104183
-0.129569
-0.157531
-0.186246
-0.214196
-0.240435
-0.264587
-0.286666
-0.306852
-0.325331
-0.342221
-0.357569
-0.371379
-0.383636
-0.394328
-0.403449
-0.411005
-0.417007
-0.421458
-0.424349
-0.425704
-0.425567
-0.423916
-0.420763
-0.416113
-0.409975
-0.40235
-0.393242
-0.382651
-0.370577
-0.357034
-0.342053
-0.325701
-0.308066
-0.289188
-0.26889
-0.246535
-0.220918
-0.19086
-0.157183
-0.125019
-0.102612
-0.0944741
-0.0957751
-0.0981916
-0.0603713
-0.0628931
-0.0689987
-0.0799468
-0.0962859
-0.117772
-0.143287
-0.171112
-0.199446
-0.226863
-0.252535
-0.276183
-0.297872
-0.317786
-0.336086
-0.352859
-0.368124
-0.381869
-0.394075
-0.404727
-0.413821
-0.421359
-0.427353
-0.43181
-0.434717
-0.436088
-0.43598
-0.434363
-0.431251
-0.426652
-0.420575
-0.413028
-0.404016
-0.393543
-0.381615
-0.368238
-0.353434
-0.337256
-0.319801
-0.301185
-0.281426
-0.260197
-0.236518
-0.208839
-0.176476
-0.142631
-0.115589
-0.103125
-0.103277
-0.10623
-0.0719371
-0.0745141
-0.0807703
-0.0919647
-0.108512
-0.13009
-0.15551
-0.183032
-0.210897
-0.237765
-0.262905
-0.286105
-0.307456
-0.327133
-0.345272
-0.36193
-0.37711
-0.390788
-0.40294
-0.413551
-0.422617
-0.430139
-0.436125
-0.440584
-0.443504
-0.444884
-0.4448
-0.44321
-0.440131
-0.435572
-0.429545
-0.422061
-0.413132
-0.402768
-0.390978
-0.377773
-0.363169
-0.347209
-0.329975
-0.311606
-0.292238
-0.271808
-0.249693
-0.224418
-0.194359
-0.160648
-0.130336
-0.113467
-0.111936
-0.115351
-0.0825842
-0.0851224
-0.0914455
-0.102748
-0.119329
-0.140816
-0.16599
-0.193117
-0.220488
-0.246839
-0.271506
-0.294321
-0.315384
-0.334856
-0.35285
-0.369402
-0.3845
-0.398114
-0.410216
-0.420792
-0.429835
-0.437344
-0.443324
-0.447785
-0.450715
-0.452101
-0.452035
-0.450464
-0.447408
-0.442877
-0.436887
-0.42945
-0.420586
-0.410311
-0.398642
-0.385596
-0.371192
-0.355466
-0.338488
-0.320391
-0.301359
-0.281516
-0.26059
-0.237446
-0.210116
-0.177982
-0.146043
-0.125257
-0.121656
-0.125315
-0.0919951
-0.0943407
-0.100664
-0.111967
-0.128442
-0.149708
-0.174542
-0.201239
-0.228138
-0.254031
-0.278299
-0.300795
-0.321619
-0.340918
-0.358785
-0.375242
-0.390268
-0.403827
-0.41589
-0.426441
-0.435469
-0.442972
-0.448951
-0.453415
-0.456354
-0.457747
-0.457691
-0.456134
-0.45309
-0.448575
-0.442604
-0.435196
-0.426375
-0.416164
-0.404589
-0.391675
-0.37745
-0.361951
-0.34524
-0.327437
-0.308738
-0.289367
-0.269336
-0.247937
-0.223322
-0.193699
-0.16174
-0.137966
-0.132093
-0.135696
-0.0999212
-0.101938
-0.108154
-0.11938
-0.135647
-0.156596
-0.181038
-0.207307
-0.233784
-0.259295
-0.283244
-0.305489
-0.326123
-0.34528
-0.363042
-0.379421
-0.394389
-0.407909
-0.419949
-0.430488
-0.439515
-0.447023
-0.45301
-0.45748
-0.460428
-0.461833
-0.461782
-0.460232
-0.457191
-0.452676
-0.446706
-0.439304
-0.430498
-0.42032
-0.408804
-0.395986
-0.381903
-0.366599
-0.350138
-0.332631
-0.314268
-0.295318
-0.275981
-0.255952
-0.233771
-0.207092
-0.176442
-0.150843
-0.142702
-0.145957
-0.106196
-0.107797
-0.113761
-0.124836
-0.140825
-0.161397
-0.185421
-0.211282
-0.237394
-0.262602
-0.28631
-0.308368
-0.328858
-0.347906
-0.365587
-0.381909
-0.396842
-0.410343
-0.422379
-0.432925
-0.441967
-0.449493
-0.455498
-0.459984
-0.462944
-0.46436
-0.464311
-0.462767
-0.459717
-0.455189
-0.449202
-0.441781
-0.43296
-0.422778
-0.411279
-0.398511
-0.384521
-0.369364
-0.35311
-0.335871
-0.31783
-0.299271
-0.280501
-0.261531
-0.241389
-0.217689
-0.189281
-0.163043
-0.152849
-0.155526
-0.110752
-0.111879
-0.117445
-0.128273
-0.143924
-0.164066
-0.187648
-0.213117
-0.238921
-0.263907
-0.28746
-0.309407
-0.329812
-0.348792
-0.366421
-0.382711
-0.39763
-0.411136
-0.42319
-0.433764
-0.442837
-0.450396
-0.456429
-0.460932
-0.463899
-0.46532
-0.465268
-0.463727
-0.460662
-0.456106
-0.450082
-0.442618
-0.43375
-0.423528
-0.412004
-0.399235
-0.38528
-0.370206
-0.354096
-0.337069
-0.319308
-0.301101
-0.282812
-0.264668
-0.246159
-0.225208
-0.199567
-0.173748
-0.1619
-0.163862
-0.113617
-0.114238
-0.119269
-0.129739
-0.144988
-0.164644
-0.187745
-0.212816
-0.238342
-0.263162
-0.286626
-0.308524
-0.328897
-0.347853
-0.365469
-0.381761
-0.3967
-0.410244
-0.422349
-0.432984
-0.442123
-0.449746
-0.455838
-0.46039
-0.463395
-0.464837
-0.464761
-0.46319
-0.460075
-0.455453
-0.449351
-0.441803
-0.432854
-0.422552
-0.410956
-0.398132
-0.38415
-0.36909
-0.353049
-0.336156
-0.318605
-0.300688
-0.282803
-0.265309
-0.248074
-0.229501
-0.206806
-0.182245
-0.169285
-0.170484
-0.114899
-0.115017
-0.119392
-0.129362
-0.144122
-0.163224
-0.185788
-0.210431
-0.235683
-0.260369
-0.283796
-0.305702
-0.326095
-0.345071
-0.36271
-0.379036
-0.394025
-0.407636
-0.419824
-0.430549
-0.43978
-0.447492
-0.453664
-0.458282
-0.461339
-0.46282
-0.462746
-0.461155
-0.45799
-0.453291
-0.447092
-0.439426
-0.430338
-0.419889
-0.408145
-0.395187
-0.3811
-0.365976
-0.349917
-0.333068
-0.315635
-0.297924
-0.280355
-0.263371
-0.247113
-0.2305
-0.210677
-0.187964
-0.174506
-0.174973
-0.114775
-0.114426
-0.118047
-0.127346
-0.141494
-0.159945
-0.181887
-0.206039
-0.230985
-0.255543
-0.278963
-0.300923
-0.321386
-0.340429
-0.358132
-0.374528
-0.389603
-0.403317
-0.415622
-0.426472
-0.435829
-0.443661
-0.449941
-0.454649
-0.457773
-0.459301
-0.459233
-0.457622
-0.454398
-0.449607
-0.443286
-0.435472
-0.426212
-0.415572
-0.403627
-0.390463
-0.376173
-0.360866
-0.344669
-0.327748
-0.310326
-0.292716
-0.275362
-0.258758
-0.243239
-0.228177
-0.210988
-0.190474
-0.177137
-0.176964
-0.113474
-0.112729
-0.115534
-0.123966
-0.137334
-0.155
-0.176193
-0.199742
-0.224304
-0.248695
-0.27211
-0.294154
-0.31473
-0.333888
-0.351703
-0.368214
-0.383417
-0.397276
-0.409739
-0.420756
-0.430279
-0.438268
-0.444689
-0.449516
-0.45273
-0.454315
-0.454261
-0.452629
-0.449342
-0.444442
-0.437975
-0.429978
-0.420502
-0.409617
-0.397404
-0.383956
-0.369379
-0.353793
-0.33734
-0.320204
-0.302638
-0.284993
-0.267734
-0.251383
-0.236404
-0.222526
-0.20764
-0.189465
-0.176809
-0.176133
-0.111259
-0.110216
-0.112192
-0.11956
-0.13193
-0.14863
-0.168904
-0.191684
-0.215722
-0.239854
-0.263224
-0.285355
-0.306079
-0.3254
-0.343379
-0.360058
-0.37544
-0.389492
-0.402163
-0.413394
-0.423129
-0.431318
-0.43792
-0.442899
-0.446229
-0.447891
-0.447869
-0.446215
-0.442863
-0.437845
-0.431209
-0.422996
-0.41326
-0.402072
-0.389521
-0.375706
-0.360742
-0.344762
-0.327925
-0.31044
-0.292587
-0.274747
-0.257427
-0.241185
-0.226566
-0.213546
-0.200596
-0.184732
-0.173201
-0.172182
-0.108408
-0.107183
-0.108365
-0.114502
-0.125625
-0.141126
-0.160257
-0.182046
-0.205356
-0.229072
-0.252302
-0.274488
-0.295375
-0.314906
-0.333109
-0.350019
-0.365642
-0.379947
-0.392882
-0.404382
-0.414383
-0.422823
-0.429651
-0.434823
-0.438305
-0.440071
-0.440102
-0.438432
-0.435019
-0.429875
-0.42305
-0.41459
-0.40455
-0.393003
-0.380042
-0.365771
-0.350315
-0.333819
-0.31646
-0.298473
-0.280171
-0.261977
-0.244441
-0.228157
-0.21372
-0.20126
-0.189864
-0.176155
-0.166025
-0.164831
-0.105191
-0.103897
-0.104374
-0.109177
-0.118799
-0.132819
-0.15053
-0.171047
-0.193359
-0.216427
-0.239358
-0.261517
-0.282555
-0.302333
-0.320825
-0.338043
-0.353985
-0.368619
-0.38189
-0.393727
-0.404057
-0.412808
-0.419917
-0.425331
-0.429005
-0.430908
-0.431017
-0.429349
-0.42588
-0.420607
-0.413578
-0.404842
-0.394456
-0.382494
-0.36905
-0.354233
-0.338175
-0.321035
-0.303009
-0.284361
-0.265441
-0.24672
-0.228798
-0.212321
-0.197924
-0.18574
-0.175502
-0.163694
-0.155036
-0.153808
-0.101843
-0.100575
-0.100482
-0.103938
-0.111847
-0.124078
-0.140036
-0.158941
-0.179914
-0.20203
-0.224426
-0.246416
-0.267553
-0.287596
-0.306444
-0.32406
-0.340418
-0.355478
-0.369176
-0.381435
-0.392172
-0.401305
-0.40876
-0.414473
-0.41839
-0.420471
-0.420689
-0.419046
-0.415534
-0.410133
-0.402889
-0.393854
-0.383084
-0.370651
-0.35665
-0.341196
-0.324426
-0.306511
-0.287672
-0.2682
-0.248492
-0.22907
-0.210591
-0.193753
-0.179248
-0.167135
-0.157641
-0.147389
-0.140044
-0.138854
-0.0985484
-0.097377
-0.0968757
-0.0990788
-0.105147
-0.115288
-0.129119
-0.14601
-0.165239
-0.186024
-0.207571
-0.229178
-0.250306
-0.270603
-0.289865
-0.307979
-0.324873
-0.34048
-0.354721
-0.36751
-0.378752
-0.388355
-0.396234
-0.402314
-0.406534
-0.408844
-0.40921
-0.407622
-0.404085
-0.398563
-0.391099
-0.381745
-0.370555
-0.3576
-0.342974
-0.326793
-0.309202
-0.290386
-0.270589
-0.250139
-0.229479
-0.209189
-0.189987
-0.172626
-0.157832
-0.145652
-0.13648
-0.127364
-0.120951
-0.119741
-0.0954389
-0.0944037
-0.0936635
-0.0947996
-0.0990187
-0.106827
-0.11814
-0.132564
-0.149583
-0.168588
-0.188899
-0.209832
-0.230781
-0.251277
-0.270989
-0.289702
-0.307267
-0.323567
-0.338498
-0.351951
-0.36382
-0.374002
-0.3824
-0.388931
-0.393524
-0.396122
-0.396685
-0.395191
-0.391654
-0.386025
-0.378342
-0.368655
-0.357016
-0.343492
-0.328176
-0.311187
-0.292675
-0.272843
-0.251958
-0.230389
-0.20863
-0.187322
-0.167246
-0.149201
-0.133942
-0.121523
-0.112284
-0.103803
-0.0977436
-0.0962324
-0.0925918
-0.091711
-0.0908853
-0.0912004
-0.0936898
-0.0990238
-0.107452
-0.118927
-0.133216
-0.149937
-0.168562
-0.188464
-0.208996
-0.229579
-0.249744
-0.269141
-0.287516
-0.304677
-0.320467
-0.334749
-0.347395
-0.358288
-0.367323
-0.374405
-0.379456
-0.382414
-0.383232
-0.38188
-0.378373
-0.37266
-0.364767
-0.354741
-0.342631
-0.328503
-0.312447
-0.294583
-0.27507
-0.254126
-0.23205
-0.209248
-0.186271
-0.163821
-0.142737
-0.123857
-0.107953
-0.0950387
-0.0854086
-0.0769347
-0.0704749
-0.0679869
-0.0900393
-0.0893214
-0.0885331
-0.0882858
-0.0892612
-0.0921024
-0.0973551
-0.105405
-0.11642
-0.130319
-0.14677
-0.165235
-0.185056
-0.205557
-0.226128
-0.246264
-0.265576
-0.283766
-0.300602
-0.315899
-0.329496
-0.341259
-0.351067
-0.35882
-0.364431
-0.367834
-0.368977
-0.367827
-0.364388
-0.358623
-0.350538
-0.340179
-0.327593
-0.312843
-0.296016
-0.277237
-0.256674
-0.234562
-0.211229
-0.187125
-0.162851
-0.139168
-0.116962
-0.0970981
-0.08034
-0.0666215
-0.0562843
-0.0470274
-0.0393466
-0.0346047
-0.0877728
-0.0872306
-0.0865699
-0.0859842
-0.0856943
-0.0861301
-0.0880289
-0.0922497
-0.0994726
-0.110015
-0.123797
-0.140405
-0.159189
-0.179395
-0.200273
-0.221156
-0.241497
-0.260865
-0.27893
-0.295433
-0.31017
-0.322976
-0.333714
-0.342273
-0.348562
-0.352508
-0.35406
-0.35318
-0.349863
-0.344089
-0.335847
-0.325178
-0.312131
-0.296768
-0.279175
-0.259482
-0.237867
-0.214583
-0.189988
-0.164568
-0.138971
-0.113998
-0.0905664
-0.0695457
-0.0516721
-0.036801
-0.025381
-0.0144111
-0.00499736
0.00397313
-0.0857356
-0.0853992
-0.0849361
-0.0841636
-0.0828094
-0.0809769
-0.0794715
-0.0795959
-0.0826118
-0.089332
-0.1
-0.114358
-0.131786
-0.151463
-0.172509
-0.194095
-0.215504
-0.236158
-0.2556
-0.273483
-0.28954
-0.303563
-0.315393
-0.324903
-0.331996
-0.336596
-0.33865
-0.33812
-0.334995
-0.329272
-0.320927
-0.309998
-0.296537
-0.280609
-0.262302
-0.241752
-0.219148
-0.194762
-0.168974
-0.142298
-0.115407
-0.0891165
-0.0643386
-0.0419173
-0.0225419
-0.00602576
0.00706591
0.0208141
0.0317303
0.0475575
-0.0838066
-0.083731
-0.0835236
-0.0826201
-0.080288
-0.0763022
-0.0714555
-0.0674115
-0.0660061
-0.0686036
-0.0758332
-0.087635
-0.103439
-0.122371
-0.143429
-0.165629
-0.18809
-0.210071
-0.230983
-0.250371
-0.26789
-0.28328
-0.296347
-0.306945
-0.314967
-0.320334
-0.322992
-0.322904
-0.320056
-0.314459
-0.30609
-0.294985
-0.281198
-0.264802
-0.245893
-0.224612
-0.201163
-0.17583
-0.149004
-0.121208
-0.0931054
-0.0654849
-0.0392001
-0.0150163
0.00646636
0.0254917
0.041464
0.059446
0.0717777
0.0982324
-0.0817913
-0.0820432
-0.0821245
-0.081035
-0.0776692
-0.0715822
-0.0635482
-0.0554941
-0.0497428
-0.0481878
-0.0518709
-0.0609673
-0.074983
-0.0930059
-0.113931
-0.136633
-0.16007
-0.183352
-0.20575
-0.226695
-0.245755
-0.262606
-0.277014
-0.288807
-0.297863
-0.304099
-0.307458
-0.30791
-0.305438
-0.300057
-0.291771
-0.280606
-0.266628
-0.249918
-0.230582
-0.208775
-0.184706
-0.158664
-0.131036
-0.102318
-0.0731211
-0.0441477
-0.01613
0.0103147
0.034752
0.0576124
0.0785048
0.103275
0.120271
0.16331
-0.0794759
-0.0800836
-0.0804509
-0.079011
-0.0744121
-0.0662019
-0.0552226
-0.043562
-0.0338804
-0.028495
-0.0288259
-0.0352959
-0.0475133
-0.064556
-0.0852396
-0.108318
-0.132616
-0.1571
-0.180914
-0.203379
-0.223972
-0.242302
-0.258087
-0.271125
-0.281277
-0.288452
-0.292594
-0.293673
-0.291678
-0.286625
-0.278541
-0.267464
-0.253468
-0.236648
-0.217124
-0.195055
-0.170655
-0.144202
-0.116049
-0.0866282
-0.0564451
-0.0260465
0.00403321
0.0334072
0.0618945
0.0902451
0.118465
0.153645
0.18342
0.248102
-0.0769645
-0.0778136
-0.0783118
-0.0762668
-0.0702174
-0.0597893
-0.0461208
-0.0314632
-0.0185851
-0.0100482
-0.00755837
-0.0117531
-0.0223544
-0.0384622
-0.0588504
-0.0821894
-0.107196
-0.132723
-0.157804
-0.181659
-0.20368
-0.223414
-0.240528
-0.254789
-0.266038
-0.274175
-0.279141
-0.28091
-0.279482
-0.274875
-0.267127
-0.256288
-0.242455
-0.225745
-0.206286
-0.184235
-0.159796
-0.133216
-0.104789
-0.0748435
-0.043724
-0.0117468
0.0208594
0.0540882
0.0881838
0.124338
0.162863
0.212518
0.260018
0.338581
-0.0755424
-0.0762408
-0.0763693
-0.0731454
-0.0652654
-0.0526127
-0.0365323
-0.0195342
-0.00439592
0.0063806
0.0108968
0.00837106
-0.000996032
-0.0163431
-0.0364461
-0.0599381
-0.08547
-0.111815
-0.137923
-0.162935
-0.186174
-0.207129
-0.225423
-0.240792
-0.253057
-0.262107
-0.267881
-0.270357
-0.269542
-0.265468
-0.258191
-0.247755
-0.234244
-0.217806
-0.19859
-0.176754
-0.152474
-0.12595
-0.0973949
-0.0670098
-0.0349353
-0.00117875
0.0344909
0.0727404
0.114737
0.16281
0.218028
0.28915
0.349513
0.424481
-0.0797153
-0.0790164
-0.0774082
-0.071799
-0.0612517
-0.0460123
-0.0276849
-0.00887175
0.00764683
0.0196586
0.0253983
0.0238643
0.0152439
0.00037591
-0.0195401
-0.0431353
-0.0690329
-0.0959624
-0.122821
-0.148697
-0.172863
-0.194764
-0.213988
-0.230246
-0.243341
-0.253154
-0.259619
-0.262716
-0.262457
-0.258882
-0.252054
-0.242063
-0.228986
-0.212905
-0.193978
-0.172383
-0.148283
-0.121833
-0.0931629
-0.0623367
-0.0292698
0.00640228
0.0455284
0.0898226
0.142203
0.207893
0.291686
0.403603
0.495862
0.603439
-0.103148
-0.0953285
-0.0868833
-0.0760951
-0.0617313
-0.0433985
-0.0227413
-0.00233852
0.0153616
0.0281477
0.0343297
0.0332201
0.0250099
0.0104893
-0.00918776
-0.0326868
-0.0586466
-0.0857927
-0.113003
-0.139337
-0.164036
-0.186514
-0.206333
-0.223181
-0.236847
-0.247199
-0.254167
-0.257726
-0.257891
-0.254703
-0.248228
-0.238551
-0.225771
-0.209998
-0.191358
-0.169988
-0.14604
-0.119637
-0.0908441
-0.0595983
-0.025598
0.0119003
0.0544117
0.104856
0.168362
0.254423
0.375713
0.555755
0.767714
1.10787
-0.189984
-0.112229
-0.0806422
-0.0714136
-0.0581351
-0.0387598
-0.0170596
0.00395082
0.0217616
0.034197
0.0398512
0.0382408
0.0296378
0.0148614
-0.00494146
-0.0284729
-0.0544174
-0.0815395
-0.108744
-0.135105
-0.159869
-0.182447
-0.202397
-0.2194
-0.233237
-0.243771
-0.250926
-0.254676
-0.255031
-0.252033
-0.245746
-0.236254
-0.223658
-0.208066
-0.189599
-0.16839
-0.144573
-0.118243
-0.0894078
-0.0579073
-0.0232756
0.0155111
0.0604448
0.115268
0.186538
0.2866
0.435343
0.680401
1.0794
1.82855
)
;

boundaryField
{
    movingWall
    {
        type            zeroGradient;
    }
    fixedWalls
    {
        type            zeroGradient;
    }
    frontAndBack
    {
        type            empty;
    }
}


// ************************************************************************* //
