/*--------------------------------*- C++ -*----------------------------------*\
  =========                 |
  \\      /  F ield         | OpenFOAM: The Open Source CFD Toolbox
   \\    /   O peration     | Website:  https://openfoam.org
    \\  /    A nd           | Version:  7
     \\/     M anipulation  |
\*---------------------------------------------------------------------------*/
FoamFile
{
    version     2.0;
    format      ascii;
    class       surfaceScalarField;
    location    "1750";
    object      phi;
}
// * * * * * * * * * * * * * * * * * * * * * * * * * * * * * * * * * * * * * //

dimensions      [0 3 -1 0 0 0 0];

internalField   nonuniform List<scalar> 
4900
(
1.70142e-06
-1.70208e-06
6.22416e-06
-4.52273e-06
1.17165e-05
-5.49237e-06
1.65023e-05
-4.78594e-06
1.97497e-05
-3.24741e-06
2.13887e-05
-1.63912e-06
2.17672e-05
-3.78549e-07
2.12617e-05
5.05465e-07
2.00154e-05
1.24626e-06
1.78644e-05
2.15103e-06
1.44154e-05
3.44896e-06
9.18159e-06
5.23374e-06
1.67197e-06
7.5096e-06
-8.56549e-06
1.02374e-05
-2.18801e-05
1.33146e-05
-3.84347e-05
1.65545e-05
-5.81334e-05
1.96986e-05
-8.05404e-05
2.2407e-05
-0.000104817
2.42769e-05
-0.000129707
2.48897e-05
-0.000153582
2.38748e-05
-0.000174555
2.09735e-05
-0.000190646
1.60905e-05
-0.000199979
9.33288e-06
-0.000201034
1.05488e-06
-0.00019287
-8.16375e-06
-0.000175244
-1.76259e-05
-0.000148678
-2.65658e-05
-0.000114467
-3.42114e-05
-7.46356e-05
-3.98312e-05
-3.18371e-05
-4.27986e-05
1.08126e-05
-4.26497e-05
5.00573e-05
-3.92447e-05
8.30467e-05
-3.29894e-05
0.000107606
-2.45588e-05
0.00012247
-1.48646e-05
0.000127528
-5.05744e-06
0.000123861
3.66699e-06
0.000113467
1.03933e-05
9.87396e-05
1.47276e-05
8.20206e-05
1.6719e-05
6.52473e-05
1.67733e-05
4.9765e-05
1.54824e-05
3.63071e-05
1.34578e-05
2.51008e-05
1.12062e-05
1.60382e-05
9.06268e-06
8.89218e-06
7.14596e-06
3.59361e-06
5.29856e-06
5.04947e-07
3.08865e-06
5.04944e-07
4.47628e-06
-6.1783e-06
1.38501e-05
-1.38967e-05
2.43116e-05
-1.5954e-05
3.28995e-05
-1.3374e-05
3.80019e-05
-8.35e-06
3.92284e-05
-2.86574e-06
3.68607e-05
1.98903e-06
3.12056e-05
6.16044e-06
2.21551e-05
1.02966e-05
9.08139e-06
1.52247e-05
-9.01267e-06
2.15429e-05
-3.32277e-05
2.94487e-05
-6.44633e-05
3.87451e-05
-0.000103159
4.8933e-05
-0.000149085
5.92407e-05
-0.000201182
6.86509e-05
-0.000257502
7.60185e-05
-0.000315335
8.02405e-05
-0.000371485
8.04268e-05
-0.000422616
7.60205e-05
-0.00046559
6.68484e-05
-0.000497728
5.31113e-05
-0.000516977
3.53397e-05
-0.000521995
1.43512e-05
-0.000512237
-8.70339e-06
-0.000487796
-3.26048e-05
-0.000449311
-5.6111e-05
-0.000397984
-7.78922e-05
-0.000335643
-9.65524e-05
-0.000264763
-0.000110711
-0.000188438
-0.000119124
-0.000110242
-0.000120846
-3.40536e-05
-0.000115433
3.60517e-05
-0.000103095
9.63827e-05
-8.48898e-05
0.000144125
-6.26071e-05
0.000177357
-3.82898e-05
0.00019529
-1.4266e-05
0.000198519
7.16488e-06
0.000189141
2.41051e-05
0.000170307
3.55534e-05
0.000145607
4.14734e-05
0.00011845
4.26391e-05
9.1602e-05
4.03058e-05
6.69291e-05
3.58792e-05
4.54179e-05
3.05738e-05
2.74582e-05
2.51056e-05
1.33343e-05
1.94225e-05
3.75514e-06
1.26678e-05
4.26008e-06
5.98748e-06
-1.21658e-05
1.73377e-05
-2.52469e-05
2.8802e-05
-2.74185e-05
3.68227e-05
-2.13948e-05
3.95382e-05
-1.10656e-05
3.63597e-05
3.12614e-07
2.72243e-05
1.11243e-05
1.19248e-05
2.14598e-05
-1.03035e-05
3.25249e-05
-4.07375e-05
4.56586e-05
-8.07367e-05
6.1542e-05
-0.000131224
7.99363e-05
-0.000192266
9.97865e-05
-0.000262757
0.000119424
-0.000340352
0.000136836
-0.000421695
0.000149994
-0.000502869
0.000157193
-0.000579922
0.000157293
-0.000649308
0.000149813
-0.000708165
0.000134877
-0.000754406
0.000113089
-0.000786678
8.53837e-05
-0.000804218
5.28797e-05
-0.000806669
1.68027e-05
-0.000793898
-2.14749e-05
-0.000765926
-6.0577e-05
-0.000723063
-9.89736e-05
-0.000666037
-0.000134919
-0.000596085
-0.000166504
-0.000515065
-0.000191732
-0.000425495
-0.000208693
-0.000330568
-0.000215773
-0.000234068
-0.000211932
-0.000140137
-0.000197026
-5.30043e-05
-0.000172023
2.337e-05
-0.000138982
8.60146e-05
-0.000100934
0.000133137
-6.13883e-05
0.000163771
-2.34689e-05
0.000178059
9.81615e-06
0.000177542
3.60707e-05
0.000165022
5.39936e-05
0.000144047
6.36137e-05
0.0001183
6.60531e-05
9.10405e-05
6.31387e-05
6.47423e-05
5.6872e-05
4.10641e-05
4.87838e-05
2.1207e-05
3.92795e-05
6.60686e-06
2.72679e-05
1.08669e-05
6.50871e-06
-1.86745e-05
1.75976e-05
-3.63358e-05
2.69531e-05
-3.67741e-05
3.07608e-05
-2.52026e-05
2.72147e-05
-7.51961e-06
1.56217e-05
1.19055e-05
-4.5536e-06
3.12995e-05
-3.43248e-05
5.1231e-05
-7.52149e-05
7.34149e-05
-0.000128701
9.91442e-05
-0.000195512
0.000128354
-0.000275071
0.000159494
-0.000365249
0.000189965
-0.000462562
0.000216737
-0.000562695
0.000236969
-0.000661201
0.0002485
-0.000754103
0.000250095
-0.000838264
0.000241454
-0.000911472
0.000223021
-0.00097232
0.000195724
-0.00101998
0.000160753
-0.00105397
0.000119373
-0.00107393
7.28373e-05
-0.00107953
2.24056e-05
-0.00107041
-3.06032e-05
-0.00104624
-8.47431e-05
-0.00100687
-0.000138346
-0.000952358
-0.000189428
-0.000883146
-0.000235716
-0.00080016
-0.000274718
-0.000705018
-0.000303836
-0.000600208
-0.000320583
-0.000489164
-0.000322976
-0.00037616
-0.00031003
-0.000266021
-0.000282162
-0.000163599
-0.000241403
-7.3215e-05
-0.000191318
1.85834e-06
-0.000136462
6.00496e-05
-8.16602e-05
0.000101056
-3.11899e-05
0.000125131
1.1995e-05
0.000133567
4.55573e-05
0.000128871
6.83105e-05
0.000114337
8.05867e-05
9.35496e-05
8.39261e-05
6.98705e-05
8.05511e-05
4.6116e-05
7.25383e-05
2.46361e-05
6.07594e-05
7.92818e-06
4.39758e-05
1.87951e-05
6.2057e-06
-2.48802e-05
1.48973e-05
-4.50274e-05
1.92097e-05
-4.10866e-05
1.54821e-05
-2.14751e-05
2.16766e-06
5.79478e-06
-2.16176e-05
3.56907e-05
-5.70501e-05
6.67319e-05
-0.000105856
0.000100037
-0.000169659
0.000137218
-0.000249024
0.000178508
-0.000342765
0.000222095
-0.000447867
0.000264596
-0.000559949
0.000302047
-0.000674069
0.000330857
-0.000785551
0.000348451
-0.000890573
0.000353522
-0.000986408
0.00034593
-0.00107134
0.000326384
-0.0011444
0.000296084
-0.00120512
0.000256439
-0.00125324
0.000208878
-0.00128861
0.000154746
-0.00131109
9.53147e-05
-0.00132053
3.18416e-05
-0.00131665
-3.4477e-05
-0.00129908
-0.000102315
-0.00126733
-0.000170101
-0.00122085
-0.000235905
-0.00115912
-0.000297443
-0.00108183
-0.000352012
-0.000989203
-0.00039646
-0.000882378
-0.000427408
-0.000763654
-0.000441701
-0.00063671
-0.000436974
-0.000506607
-0.000412264
-0.000379386
-0.000368625
-0.00026125
-0.000309454
-0.000157494
-0.000240218
-7.16405e-05
-0.000167513
-5.13051e-06
-9.76999e-05
4.25784e-05
-3.5714e-05
7.27314e-05
1.54043e-05
8.69319e-05
5.411e-05
8.77081e-05
7.98104e-05
7.82691e-05
9.33651e-05
6.21269e-05
9.66932e-05
4.27423e-05
9.19229e-05
2.34093e-05
8.00924e-05
7.60351e-06
5.97815e-05
2.63986e-05
4.89938e-06
-2.97796e-05
8.88403e-06
-4.90121e-05
5.29673e-06
-3.74994e-05
-8.91269e-06
-7.26579e-06
-3.50886e-05
3.19706e-05
-7.43935e-05
7.49955e-05
-0.000128546
0.000120884
-0.000199294
0.000170785
-0.000287197
0.000225121
-0.000390732
0.000282043
-0.000506254
0.000337618
-0.000628703
0.000387046
-0.000752631
0.000425975
-0.000873129
0.000451355
-0.000986394
0.000461716
-0.00108987
0.000456994
-0.00118206
0.000438123
-0.00126226
0.000406588
-0.00133028
0.000364105
-0.00138625
0.000312408
-0.00143048
0.000253109
-0.00146338
0.000187646
-0.00148539
0.000117323
-0.00149684
4.32866e-05
-0.00149778
-3.35302e-05
-0.00148799
-0.000112111
-0.00146687
-0.000191221
-0.00143339
-0.000269384
-0.00138612
-0.000344713
-0.00132348
-0.000414647
-0.00124407
-0.000475869
-0.00114701
-0.000524472
-0.00103246
-0.000556247
-0.000902299
-0.00056714
-0.000760499
-0.000554065
-0.000613203
-0.000515921
-0.000468186
-0.000454471
-0.000333699
-0.000374704
-0.00021681
-0.000284402
-0.000121827
-0.000192684
-4.9703e-05
-0.000107838
1.1979e-06
-3.54967e-05
3.34778e-05
2.18301e-05
4.96878e-05
6.36003e-05
5.27872e-05
9.02657e-05
4.61902e-05
0.00010329
3.35997e-05
0.000104513
1.88765e-05
9.48156e-05
6.11498e-06
7.2543e-05
3.25136e-05
2.27643e-06
-3.2056e-05
-9.08441e-07
-4.58273e-05
-1.49942e-05
-2.34137e-05
-4.21733e-05
1.99133e-05
-8.36289e-05
7.34261e-05
-0.000140795
0.000132161
-0.000215372
0.000195461
-0.00030804
0.000263453
-0.000417263
0.000334344
-0.000539099
0.000403879
-0.000668001
0.00046652
-0.000798038
0.000517082
-0.000923937
0.000551874
-0.00104168
0.000569097
-0.00114861
0.000568644
-0.00124324
0.00055163
-0.001325
0.000519882
-0.00139396
0.00047555
-0.0014507
0.000420839
-0.00149612
0.000357825
-0.00153132
0.000288312
-0.00155749
0.000213816
-0.0015757
0.000135534
-0.00158674
5.43214e-05
-0.00159106
-2.92025e-05
-0.00158874
-0.000114438
-0.00157924
-0.000200719
-0.00156134
-0.000287279
-0.00153321
-0.000372851
-0.00149243
-0.00045542
-0.00143617
-0.000532127
-0.00136147
-0.000599181
-0.00126591
-0.000651807
-0.00114849
-0.000684561
-0.00101042
-0.000692133
-0.000855861
-0.000670477
-0.000692217
-0.000618115
-0.000529539
-0.000537382
-0.000378851
-0.000435091
-0.000249629
-0.000321905
-0.000147348
-0.00021012
-7.2463e-05
-0.000110381
-2.16719e-05
-2.89611e-05
9.34802e-06
3.25804e-05
2.44546e-05
7.51591e-05
2.74318e-05
0.000100313
2.22369e-05
0.000109708
1.305e-05
0.000104002
4.2141e-06
8.13789e-05
3.67277e-05
-1.91427e-06
-3.01418e-05
-1.46453e-05
-3.30963e-05
-4.13098e-05
3.25061e-06
-8.3199e-05
6.18024e-05
-0.000141325
0.000131552
-0.000217086
0.000207923
-0.000311267
0.000289641
-0.000422586
0.000374772
-0.000547154
0.000458912
-0.000679167
0.000535892
-0.000812238
0.000599592
-0.000940605
0.000645449
-0.00105982
0.00067109
-0.00116692
0.000676198
-0.00126028
0.000662003
-0.00133936
0.000630708
-0.00140448
0.000585007
-0.00145667
0.000527731
-0.0014974
0.000461571
-0.00152843
0.000388862
-0.00155161
0.000311488
-0.00156864
0.000230849
-0.00158096
0.000147849
-0.00158963
6.29967e-05
-0.00159543
-2.34019e-05
-0.00159865
-0.000111225
-0.00159896
-0.000200404
-0.00159545
-0.000290791
-0.00158649
-0.00038181
-0.00156956
-0.000472348
-0.00154117
-0.000560523
-0.00149706
-0.000643289
-0.00143271
-0.000716155
-0.00134401
-0.000773266
-0.00122832
-0.000807816
-0.00108591
-0.000812894
-0.000921071
-0.000782951
-0.000742694
-0.000715759
-0.000563521
-0.000614263
-0.000397918
-0.000487508
-0.000258277
-0.000349761
-0.000151369
-0.00021729
-7.68342e-05
-0.000103496
-2.92061e-05
-1.50477e-05
-2.05613e-06
4.80091e-05
9.98615e-06
8.82706e-05
1.17381e-05
0.000107956
7.79544e-06
0.000107945
2.60216e-06
8.65722e-05
3.93298e-05
-7.74066e-06
-2.24011e-05
-3.18884e-05
-8.94866e-06
-7.24807e-05
4.38429e-05
-0.000129776
0.000119098
-0.000204597
0.000206373
-0.000297675
0.000301
-0.000408118
0.000400084
-0.00053242
0.000499074
-0.000664811
0.000591302
-0.000798557
0.000669639
-0.000927347
0.000728381
-0.00104616
0.000764263
-0.00115158
0.000776508
-0.00124171
0.000766331
-0.001316
0.000736294
-0.001375
0.000689709
-0.00142015
0.000630151
-0.00145346
0.000561048
-0.00147727
0.000485378
-0.0014939
0.00040549
-0.00150548
0.000323068
-0.00151379
0.000239164
-0.00152024
0.000154298
-0.0015259
6.86579e-05
-0.00153153
-1.77759e-05
-0.0015375
-0.000105261
-0.00154383
-0.000194071
-0.00155019
-0.000284426
-0.00155562
-0.000376388
-0.0015582
-0.000469767
-0.00155495
-0.000563772
-0.00154167
-0.000656571
-0.00151291
-0.000744915
-0.00146236
-0.000823808
-0.0013839
-0.000886278
-0.00127309
-0.0009237
-0.00112905
-0.000926991
-0.000956131
-0.000888682
-0.000764826
-0.000805568
-0.000571029
-0.000681305
-0.000392966
-0.000527823
-0.000246173
-0.000364082
-0.000138385
-0.000211284
-6.76924e-05
-8.57402e-05
-2.58862e-05
6.20291e-06
-4.30375e-06
6.66881e-05
3.87552e-06
9.9777e-05
4.28501e-06
0.000107536
1.71555e-06
8.91416e-05
4.10454e-05
-1.49306e-05
-7.47056e-06
-5.16562e-05
2.77769e-05
-0.000106474
9.86611e-05
-0.000178711
0.000191335
-0.000268718
0.00029638
-0.000375956
0.000408237
-0.000497558
0.000521687
-0.00062813
0.000629646
-0.000760818
0.00072399
-0.000888802
0.000797623
-0.00100642
0.000845997
-0.00110967
0.000867516
-0.00119631
0.000863143
-0.00126567
0.000835699
-0.00131851
0.000789128
-0.00135663
0.000727834
-0.00138259
0.000656103
-0.00139919
0.000577651
-0.00140918
0.000495366
-0.00141493
0.000411244
-0.00141835
0.000326484
-0.00142083
0.000241647
-0.0014234
0.000156872
-0.0014268
7.20581e-05
-0.00143152
-1.30635e-05
-0.00143791
-9.88702e-05
-0.00144628
-0.000185702
-0.00145678
-0.000273923
-0.00146922
-0.000363952
-0.00148283
-0.000456156
-0.00149599
-0.000550609
-0.00150573
-0.000646831
-0.00150728
-0.000743361
-0.00149405
-0.000837042
-0.00145804
-0.000922286
-0.00139102
-0.000990724
-0.00128642
-0.00103159
-0.00114196
-0.00103315
-0.000962089
-0.000985439
-0.00075934
-0.000884054
-0.000553294
-0.000733869
-0.000366417
-0.000550959
-0.000217185
-0.000360516
-0.000113329
-0.000189597
-5.01781e-05
-5.6948e-05
-1.63304e-05
3.28404e-05
-1.28464e-06
8.47312e-05
2.75102e-06
0.0001035
1.64907e-06
9.02435e-05
4.26945e-05
-2.29855e-05
1.55149e-05
-7.24396e-05
7.7231e-05
-0.000140699
0.000166921
-0.000226252
0.000276887
-0.000328574
0.000398703
-0.000445543
0.000525206
-0.000572492
0.000648636
-0.000702788
0.000759942
-0.000829274
0.000850476
-0.000945641
0.00091399
-0.00104723
0.000947583
-0.00113129
0.000951576
-0.00119696
0.000928813
-0.00124505
0.000883793
-0.00127772
0.000821797
-0.00129797
0.000748081
-0.00130909
0.000667231
-0.00131421
0.000582768
-0.0013159
0.000497051
-0.00131606
0.000411412
-0.00131599
0.000326408
-0.00131644
0.000242103
-0.00131789
0.000158313
-0.00132057
7.47386e-05
-0.00132467
-8.96283e-06
-0.00133045
-9.3091e-05
-0.00133823
-0.000177914
-0.00134842
-0.000263739
-0.0013614
-0.000350975
-0.00137746
-0.000440093
-0.00139644
-0.00053163
-0.00141717
-0.0006261
-0.00143691
-0.000723623
-0.00145074
-0.00082321
-0.00145119
-0.000921833
-0.0014285
-0.00101341
-0.00137204
-0.00108805
-0.00127292
-0.00113226
-0.00112749
-0.00113088
-0.000940604
-0.00107094
-0.000727447
-0.000947027
-0.000512009
-0.000766397
-0.00032127
-0.000551254
-0.000175838
-0.000335029
-8.16081e-05
-0.000151178
-2.96106e-05
-1.91571e-05
-5.38978e-06
6.05103e-05
2.49501e-06
9.5615e-05
2.18188e-06
9.05566e-05
4.48763e-05
-3.11634e-05
4.66782e-05
-9.24261e-05
0.000138494
-0.000172419
0.000246914
-0.000268673
0.000373141
-0.00037953
0.00050956
-0.000501309
0.000646985
-0.000628018
0.000775345
-0.000752481
0.000884405
-0.000867854
0.000965849
-0.00096875
0.00101489
-0.00105178
0.00103062
-0.00111569
0.00101548
-0.0011612
0.000974316
-0.00119063
0.000913229
-0.00120738
0.00083855
-0.0012152
0.0007559
-0.00121757
0.000669597
-0.00121727
0.000582471
-0.00121625
0.000496028
-0.00121564
0.0004108
-0.00121596
0.000326734
-0.00121737
0.000243513
-0.00121982
0.000160761
-0.00122321
7.81226e-05
-0.00122749
-4.67756e-06
-0.00123277
-8.78142e-05
-0.00123925
-0.000171436
-0.00124731
-0.000255677
-0.00125755
-0.00034073
-0.00127074
-0.000426909
-0.0012876
-0.000514768
-0.00130857
-0.000605133
-0.00133322
-0.000698969
-0.00135943
-0.000797005
-0.0013823
-0.000898957
-0.00139352
-0.00100219
-0.00138153
-0.00110005
-0.00133319
-0.0011806
-0.00123719
-0.00122688
-0.00108862
-0.0012195
-0.000893465
-0.00114219
-0.000670665
-0.000989198
-0.000449619
-0.0007723
-0.000261707
-0.00052294
-0.000127792
-0.000285094
-4.91495e-05
-9.77992e-05
-1.12716e-05
2.26324e-05
2.16069e-06
8.21827e-05
2.88169e-06
8.98356e-05
4.7758e-05
-3.85893e-05
8.52676e-05
-0.000109887
0.000209791
-0.00019915
0.000336176
-0.000302837
0.000476828
-0.000418092
0.000624816
-0.000539962
0.000768854
-0.000661703
0.000897085
-0.000776198
0.0009989
-0.000877366
0.00106702
-0.000961039
0.00109856
-0.00102533
0.00109491
-0.0010706
0.00106076
-0.00109916
0.00100287
-0.00111461
0.000928683
-0.00112109
0.000845024
-0.00112244
0.000757248
-0.0011217
0.000668858
-0.00112088
0.000581654
-0.00112104
0.000496187
-0.00112252
0.000412276
-0.00112523
0.000329444
-0.0011289
0.000247188
-0.00113324
0.000165101
-0.00113801
8.28926e-05
-0.00114309
3.97825e-07
-0.00114844
-8.2459e-05
-0.00115417
-0.000165711
-0.0011605
-0.00024934
-0.00116789
-0.000333346
-0.00117698
-0.000417818
-0.0011887
-0.000503041
-0.00120423
-0.000589606
-0.00122468
-0.000678524
-0.00125042
-0.000771259
-0.00128002
-0.000869357
-0.00130882
-0.000973393
-0.00132776
-0.00108111
-0.00132333
-0.00118503
-0.00127962
-0.00127058
-0.00118286
-0.00131626
-0.00102757
-0.00129748
-0.000822178
-0.00119459
-0.000591066
-0.00100341
-0.000369993
-0.000744013
-0.000193736
-0.00046135
-7.99904e-05
-0.000211545
-2.19455e-05
-3.54127e-05
2.49807e-07
5.99873e-05
3.27385e-06
8.68115e-05
5.10319e-05
-4.44958e-05
0.000129763
-0.000123392
0.000288688
-0.000218973
0.000431757
-0.000326562
0.000584417
-0.000442223
0.000740477
-0.000560145
0.000886776
-0.000673379
0.00101032
-0.000775331
0.00110085
-0.000860994
0.00115268
-0.000927623
0.00116519
-0.000974929
0.00114221
-0.00100487
0.00109069
-0.00102103
0.00101904
-0.00102779
0.000935445
-0.00102936
0.000846592
-0.00102908
0.000756964
-0.00102911
0.000668888
-0.0010305
0.000583046
-0.00103348
0.000499168
-0.00103781
0.000416609
-0.00104309
0.000334719
-0.0010489
0.000253002
-0.00105494
0.000171143
-0.00106102
8.89676e-05
-0.00106702
6.40168e-06
-0.00107292
-7.65651e-05
-0.00107873
-0.000159901
-0.00108453
-0.000243534
-0.0010905
-0.00032738
-0.00109695
-0.000411365
-0.00110451
-0.000495483
-0.0011142
-0.000579916
-0.00112748
-0.000665246
-0.00114603
-0.000752711
-0.00117108
-0.000844306
-0.00120204
-0.000942434
-0.0012345
-0.00104864
-0.00125848
-0.00116105
-0.00125815
-0.00127092
-0.00121462
-0.00135979
-0.00111202
-0.00140007
-0.000945534
-0.00136108
-0.000728133
-0.00122081
-0.000491768
-0.000980378
-0.000279075
-0.000674044
-0.000125359
-0.000365262
-3.96764e-05
-0.000121095
-4.39014e-06
2.4701e-05
3.03255e-06
7.93887e-05
5.40644e-05
-4.83118e-05
0.000178075
-0.000131957
0.000372333
-0.000230707
0.000530507
-0.000338759
0.000692469
-0.000451333
0.000853051
-0.000562203
0.000997647
-0.000664663
0.00111278
-0.000752968
0.00118916
-0.000823376
0.00122309
-0.00087464
0.00121645
-0.000908003
0.00117557
-0.000926719
0.00110941
-0.000935187
0.00102751
-0.000937904
0.000938162
-0.000938568
0.000847256
-0.000939611
0.000758007
-0.000942188
0.000671465
-0.000946501
0.000587359
-0.000952218
0.000504885
-0.000958832
0.000423222
-0.000965881
0.000341768
-0.000973038
0.00026016
-0.000980118
0.000178223
-0.000987038
9.58872e-05
-0.000993774
1.31382e-05
-0.00100033
-7.00086e-05
-0.00100671
-0.000153518
-0.00101291
-0.000237339
-0.0010189
-0.000321388
-0.00102472
-0.000405542
-0.00103056
-0.000489648
-0.00103688
-0.000573594
-0.00104467
-0.000657461
-0.00105557
-0.000741805
-0.00107185
-0.000828032
-0.00109557
-0.000918706
-0.00112695
-0.00101727
-0.00116163
-0.00112637
-0.00118831
-0.00124424
-0.00118835
-0.00135975
-0.00113967
-0.00144875
-0.00102508
-0.00147566
-0.000842644
-0.00140325
-0.000613007
-0.00121002
-0.000377927
-0.000909123
-0.000185675
-0.000557514
-6.59164e-05
-0.000240854
-1.23345e-05
-2.8881e-05
2.04213e-06
6.50121e-05
5.61065e-05
-4.97076e-05
0.000227783
-0.000135091
0.000457716
-0.000233928
0.000629344
-0.000339359
0.000797901
-0.000446051
0.000959743
-0.000547758
0.00109935
-0.00063835
0.00120337
-0.000713127
0.00126393
-0.000769679
0.00127964
-0.000808179
0.00125495
-0.000831142
0.00119854
-0.000842675
0.00112094
-0.000847397
0.00103223
-0.000849375
0.000940139
-0.000851423
0.000849304
-0.000854952
0.000761537
-0.000860254
0.000676767
-0.00086697
0.000594075
-0.000874529
0.000512444
-0.000882421
0.000431114
-0.000890306
0.000349653
-0.00089802
0.000267874
-0.000905523
0.000185726
-0.000912842
0.000103206
-0.000920028
2.03237e-05
-0.000927124
-6.29127e-05
-0.000934144
-0.000146498
-0.000941061
-0.000230422
-0.000947802
-0.000314647
-0.000954257
-0.000399086
-0.000960315
-0.00048359
-0.000965964
-0.000567945
-0.000971493
-0.000651931
-0.000977806
-0.000735492
-0.000986718
-0.00081912
-0.00100098
-0.000904441
-0.00102351
-0.000994746
-0.00105517
-0.0010947
-0.00109135
-0.00120807
-0.00111857
-0.00133253
-0.00111455
-0.00145277
-0.00105411
-0.00153611
-0.000920617
-0.00153674
-0.000718609
-0.00141202
-0.000480257
-0.00114748
-0.000258244
-0.000779527
-0.000101487
-0.00039761
-2.37471e-05
-0.000106621
3.0927e-07
4.09558e-05
5.64158e-05
-4.85964e-05
0.000276379
-0.000132764
0.000541884
-0.00022887
0.00072545
-0.000329109
0.00089814
-0.000427876
0.00105851
-0.000519225
0.0011907
-0.000597815
0.00128196
-0.000660069
0.00132619
-0.000704842
0.00132441
-0.000733505
0.00128362
-0.000749456
0.00121449
-0.000757141
0.00112863
-0.000760889
0.00103598
-0.000763978
0.000943228
-0.000768235
0.000853561
-0.000774192
0.000767494
-0.000781562
0.000684137
-0.000789748
0.000602262
-0.000798193
0.000520888
-0.000806533
0.000439454
-0.000814608
0.000357729
-0.000822408
0.000275674
-0.000829996
0.000193314
-0.000837464
0.000110675
-0.000844897
2.77567e-05
-0.000852358
-5.54513e-05
-0.000859876
-0.00013898
-0.000867442
-0.000222856
-0.000874999
-0.000307089
-0.000882424
-0.000391662
-0.000889518
-0.000476496
-0.000896041
-0.000561423
-0.000901808
-0.000646164
-0.000906929
-0.000730371
-0.000912204
-0.000813845
-0.000919605
-0.00089704
-0.000932451
-0.000981899
-0.000954484
-0.00107267
-0.000986992
-0.00117556
-0.00102417
-0.00129535
-0.00104919
-0.00142775
-0.00103533
-0.00154997
-0.000955197
-0.00161687
-0.000796153
-0.00157107
-0.000574332
-0.0013693
-0.000337226
-0.00101663
-0.000146121
-0.000588716
-3.9003e-05
-0.000213739
-2.30573e-06
4.25846e-06
5.41101e-05
-4.50973e-05
0.000321477
-0.000125318
0.000622104
-0.000216264
0.000816396
-0.000309308
0.000991184
-0.000398814
0.00114802
-0.000479364
0.00127125
-0.000546512
0.00134911
-0.000597769
0.00137744
-0.000633077
0.00135972
-0.000654679
0.00130522
-0.000666419
0.00122623
-0.000672621
0.00113483
-0.000676979
0.00104034
-0.000681859
0.000948108
-0.000688212
0.000859913
-0.00069596
0.000775241
-0.000704544
0.000692722
-0.00071337
0.000611088
-0.000722032
0.00052955
-0.000730355
0.000447776
-0.000738333
0.000365708
-0.000746054
0.000283395
-0.000753633
0.000200893
-0.000761179
0.000118221
-0.000768779
3.5356e-05
-0.000776494
-4.77359e-05
-0.00078436
-0.000131115
-0.000792386
-0.00021483
-0.000800547
-0.000298928
-0.000808765
-0.000383444
-0.00081688
-0.00046838
-0.000824639
-0.000553664
-0.000831694
-0.000639109
-0.000837702
-0.000724363
-0.000842602
-0.000808945
-0.000847143
-0.000892499
-0.000853556
-0.000975486
-0.000865826
-0.0010604
-0.000888463
-0.00115292
-0.00092261
-0.0012612
-0.000959992
-0.00139037
-0.000978729
-0.00153123
-0.000947191
-0.00164841
-0.000838403
-0.00167986
-0.000649532
-0.00155817
-0.000414641
-0.00125152
-0.000197772
-0.000805585
-5.87633e-05
-0.000352747
-5.87494e-06
-4.863e-05
4.82351e-05
-3.94831e-05
0.00036096
-0.000113351
0.000695972
-0.000197149
0.000900194
-0.000281546
0.00107558
-0.000361053
0.00122752
-0.000430918
0.00134112
-0.000487605
0.0014058
-0.000529587
0.00141943
-0.000557635
0.00138777
-0.000574504
0.00132209
-0.000584073
0.0012358
-0.000590212
0.00114097
-0.000595826
0.00104595
-0.000602435
0.000954717
-0.000610339
0.000867818
-0.000619135
0.000784036
-0.000628224
0.000701811
-0.000637149
0.000620012
-0.000645688
0.00053809
-0.000653825
0.000455913
-0.000661654
0.000373536
-0.000669304
0.000291045
-0.0006769
0.000208488
-0.00068454
0.000125861
-0.000692298
4.3114e-05
-0.000700227
-3.98071e-05
-0.000708357
-0.000122984
-0.000716706
-0.000206481
-0.00072527
-0.000290364
-0.000734013
-0.000374701
-0.000742848
-0.000459545
-0.000751597
-0.000544915
-0.000759956
-0.000630749
-0.000767486
-0.000716833
-0.000773707
-0.000802724
-0.000778434
-0.000887772
-0.000782453
-0.000971467
-0.000788411
-0.00105444
-0.000801147
-0.00114019
-0.000825819
-0.00123653
-0.000862365
-0.00135382
-0.000897877
-0.00149572
-0.000903601
-0.00164269
-0.000844152
-0.00173931
-0.000698607
-0.00170371
-0.000482266
-0.00146786
-0.000252359
-0.00103549
-8.31769e-05
-0.000521929
-1.03789e-05
-0.000121428
3.78562e-05
-3.21253e-05
0.000393085
-9.7612e-05
0.000761459
-0.000172712
0.000975294
-0.000247494
0.00115036
-0.000316722
0.00129675
-0.00037637
0.00140077
-0.000423758
0.00145318
-0.000458134
0.0014538
-0.000480809
0.00141044
-0.000494699
0.00133598
-0.000503401
0.0012445
-0.000510147
0.00114771
-0.000517056
0.00105286
-0.000524973
0.000962634
-0.000533802
0.000876647
-0.000543031
0.000793266
-0.000552162
0.000710942
-0.000560908
0.000628758
-0.000569209
0.000546391
-0.00057715
0.000463854
-0.000584868
0.000381254
-0.000592499
0.000298676
-0.000600153
0.000216143
-0.000607914
0.000133622
-0.00061584
5.10404e-05
-0.000623976
-3.16712e-05
-0.000632345
-0.000114615
-0.000640962
-0.000197864
-0.000649832
-0.000281494
-0.000658942
-0.000365591
-0.00066825
-0.000450238
-0.000677658
-0.000535507
-0.000686972
-0.000621435
-0.000695844
-0.000707961
-0.000703747
-0.000794822
-0.000710078
-0.000881441
-0.000714581
-0.000966964
-0.000718246
-0.00105078
-0.000724441
-0.00113399
-0.00073907
-0.0012219
-0.000767399
-0.00132549
-0.000806175
-0.00145695
-0.000835018
-0.00161385
-0.000817433
-0.00175689
-0.000718677
-0.00180247
-0.000533485
-0.00165306
-0.000304592
-0.00126439
-0.00011123
-0.000715292
-1.58204e-05
-0.000216837
2.20358e-05
-2.34478e-05
0.000416533
-7.89056e-05
0.000816917
-0.000144151
0.00104054
-0.000208738
0.00121495
-0.000267724
0.00135574
-0.000317808
0.00145085
-0.000357057
0.00149243
-0.000385286
0.00148203
-0.000404061
0.00142922
-0.000416166
0.00134808
-0.00042471
0.00125304
-0.000432226
0.00115523
-0.000440154
0.00106079
-0.000448868
0.000971348
-0.000458083
0.000885863
-0.000467324
0.000802507
-0.000476239
0.000719857
-0.000484699
0.000637218
-0.000492751
0.000554443
-0.000500528
0.000471631
-0.000508176
0.000388902
-0.000515817
0.000306317
-0.000523544
0.00022387
-0.000531429
0.000141507
-0.000539522
5.91334e-05
-0.000547863
-2.33295e-05
-0.000556471
-0.000106008
-0.000565355
-0.00018898
-0.000574517
-0.000272331
-0.000583952
-0.000356157
-0.000593635
-0.000440555
-0.000603517
-0.000525625
-0.00061349
-0.000611462
-0.000623335
-0.000698116
-0.000632648
-0.000785508
-0.000640804
-0.000873285
-0.000647098
-0.00096067
-0.000651315
-0.00104656
-0.00065492
-0.00113038
-0.000662399
-0.00121442
-0.000680777
-0.00130711
-0.000714121
-0.0014236
-0.000752712
-0.00157526
-0.000765679
-0.00174392
-0.000710992
-0.00185715
-0.000564442
-0.00179961
-0.000349426
-0.0014794
-0.000140925
-0.000923793
-2.20969e-05
-0.000335665
-6.10636e-08
-1.38915e-05
0.000430424
-5.80303e-05
0.000861055
-0.000112592
0.0010951
-0.000166694
0.00126905
-0.000215664
0.00140471
-0.000256881
0.00149207
-0.000289029
0.00152458
-0.000312283
0.00150529
-0.000328214
0.00144515
-0.000339263
0.00135913
-0.000347936
0.00126172
-0.0003561
0.00116339
-0.00036466
0.00106935
-0.000373706
0.000980395
-0.00038291
0.000895067
-0.000391902
0.000811499
-0.000400476
0.000728431
-0.000408617
0.000645358
-0.00041643
0.000562257
-0.000424063
0.000479264
-0.00043165
0.000396489
-0.000439294
0.000313962
-0.000447077
0.000231653
-0.000455064
0.000149493
-0.000463305
6.73753e-05
-0.000471844
-1.47904e-05
-0.000480694
-9.71583e-05
-0.000489861
-0.000179813
-0.000499343
-0.00026285
-0.000509126
-0.000346373
-0.000519193
-0.000430488
-0.000529512
-0.000515306
-0.000540021
-0.000600952
-0.000550595
-0.000687542
-0.000560973
-0.00077513
-0.000570675
-0.000863583
-0.000578966
-0.000952379
-0.000585078
-0.00104045
-0.000589023
-0.00112644
-0.000593173
-0.00121027
-0.000603613
-0.00129667
-0.000628012
-0.0013992
-0.000666283
-0.00153698
-0.00069761
-0.0017126
-0.000679886
-0.00187488
-0.00057431
-0.00190518
-0.000383152
-0.00167056
-0.000169687
-0.00113726
-2.94199e-05
-0.000475933
-2.9481e-05
-3.87638e-06
0.000434301
-3.57505e-05
0.000892929
-7.90435e-05
0.00113839
-0.000122563
0.00131257
-0.000161831
0.00144397
-0.000194825
0.00152506
-0.00022072
0.00155047
-0.000239865
0.00152443
-0.000253648
0.00145893
-0.000264019
0.0013695
-0.000272849
0.00127055
-0.000281412
0.00117196
-0.000290225
0.00107816
-0.000299236
0.000989405
-0.000308157
0.000903988
-0.000316745
0.000820087
-0.000324914
0.0007366
-0.00033272
0.000653164
-0.000340292
0.00056983
-0.000347771
0.000486742
-0.000355273
0.000403991
-0.000362889
0.000321578
-0.00037069
0.000239454
-0.00037874
0.000157544
-0.000387102
7.57372e-05
-0.000395821
-6.07124e-06
-0.000404913
-8.80662e-05
-0.000414382
-0.000170344
-0.000424215
-0.000253017
-0.000434396
-0.000336192
-0.000444901
-0.000419983
-0.000455702
-0.000504506
-0.000466756
-0.000589898
-0.000477988
-0.00067631
-0.000489237
-0.000763882
-0.000500179
-0.000852641
-0.000510228
-0.000942329
-0.000518534
-0.00103214
-0.00052436
-0.00112061
-0.000528298
-0.00120633
-0.000534265
-0.00129071
-0.000550194
-0.00138327
-0.000582436
-0.00150474
-0.0006215
-0.00167353
-0.000631413
-0.00186496
-0.000564821
-0.00197178
-0.000403885
-0.00183149
-0.000195073
-0.00134607
-3.7853e-05
-0.000633153
-6.7334e-05
6.06036e-06
0.00042824
-1.2735e-05
0.000911725
-4.43967e-05
0.00117006
-7.73376e-05
0.00134551
-0.000107222
0.00147386
-0.000132526
0.00155037
-0.000152797
0.00157075
-0.000168417
0.00154005
-0.000180454
0.00147097
-0.000190291
0.00137934
-0.000199169
0.00127942
-0.000207859
0.00118065
-0.000216606
0.00108691
-0.000225308
0.000998108
-0.000233765
0.000912445
-0.000241852
0.000828174
-0.00024957
0.000744318
-0.000257016
0.00066061
-0.000264321
0.000577134
-0.000271609
0.00049403
-0.000278983
0.000411365
-0.000286524
0.00032912
-0.0002943
0.000247229
-0.000302373
0.000165617
-0.000310818
8.41832e-05
-0.000319693
2.80303e-06
-0.000329021
-7.87379e-05
-0.000338803
-0.000160562
-0.000349018
-0.000242801
-0.000359643
-0.000325567
-0.00037065
-0.000408976
-0.000382007
-0.000493148
-0.00039368
-0.000578225
-0.000405612
-0.000664378
-0.000417699
-0.000751795
-0.000429725
-0.000840615
-0.000441271
-0.000930783
-0.000451621
-0.00102179
-0.000459838
-0.0011124
-0.000465445
-0.00120073
-0.0004702
-0.00128595
-0.0004803
-0.00137317
-0.00050481
-0.00148023
-0.00054398
-0.00163436
-0.000571972
-0.00183697
-0.000539396
-0.00200435
-0.00041152
-0.00195937
-0.000215317
-0.00154227
-4.69712e-05
-0.000801498
-0.000114305