/*--------------------------------*- C++ -*----------------------------------*\
  =========                 |
  \\      /  F ield         | OpenFOAM: The Open Source CFD Toolbox
   \\    /   O peration     | Website:  https://openfoam.org
    \\  /    A nd           | Version:  7
     \\/     M anipulation  |
\*---------------------------------------------------------------------------*/
FoamFile
{
    version     2.0;
    format      ascii;
    class       volVectorField;
    location    "1750";
    object      U;
}
// * * * * * * * * * * * * * * * * * * * * * * * * * * * * * * * * * * * * * //

dimensions      [0 1 -1 0 0 0 0];

internalField   nonuniform List<vector> 
2500
(
(0.000207844 -0.000200825 0)
(0.00186703 -0.000571036 0)
(0.00447434 -0.000697784 0)
(0.00716314 -0.000600086 0)
(0.00922918 -0.000418987 0)
(0.0104505 -0.000264325 0)
(0.0109303 -0.00018799 0)
(0.0108812 -0.000185859 0)
(0.0104508 -0.000219844 0)
(0.00963448 -0.000245412 0)
(0.00828307 -0.000228673 0)
(0.00616427 -0.000150776 0)
(0.00302083 -2.6749e-06 0)
(-0.00139097 0.00022101 0)
(-0.00727572 0.000523415 0)
(-0.0147659 0.000908077 0)
(-0.023884 0.001375 0)
(-0.0345 0.00191255 0)
(-0.046296 0.00248751 0)
(-0.0587459 0.00303759 0)
(-0.0711215 0.00347303 0)
(-0.082529 0.00368925 0)
(-0.0919795 0.00358781 0)
(-0.0984904 0.00310356 0)
(-0.101197 0.00223083 0)
(-0.0994243 0.00102766 0)
(-0.0929053 -0.000375207 0)
(-0.0817134 -0.00181212 0)
(-0.0663165 -0.00310943 0)
(-0.047571 -0.00410033 0)
(-0.0266962 -0.00463998 0)
(-0.00517432 -0.00460557 0)
(0.0154686 -0.00393506 0)
(0.0337632 -0.00278365 0)
(0.0484023 -0.00137062 0)
(0.0584307 0.000126358 0)
(0.0634683 0.00149747 0)
(0.0637281 0.00253467 0)
(0.0600167 0.00311212 0)
(0.0534996 0.00322495 0)
(0.0454085 0.00298645 0)
(0.0368468 0.00254955 0)
(0.0286512 0.00204863 0)
(0.0213415 0.00157428 0)
(0.0151474 0.00117418 0)
(0.0100797 0.000863376 0)
(0.00602889 0.000631207 0)
(0.00290104 0.000435996 0)
(0.000795286 0.00019277 0)
(-8.20338e-05 -8.74356e-05 0)
(0.000566319 -0.00181745 0)
(0.00437595 -0.0043152 0)
(0.00958268 -0.00511647 0)
(0.0146043 -0.00444054 0)
(0.0181618 -0.00299826 0)
(0.0197686 -0.00145776 0)
(0.0194632 -0.000192439 0)
(0.0174568 0.000765624 0)
(0.0138347 0.00162521 0)
(0.0084079 0.00266504 0)
(0.000739716 0.0041024 0)
(-0.00972603 0.00604322 0)
(-0.0235184 0.00849169 0)
(-0.0409998 0.0113807 0)
(-0.0622505 0.014572 0)
(-0.0869631 0.0178398 0)
(-0.11438 0.0208637 0)
(-0.143307 0.0232514 0)
(-0.172222 0.0245944 0)
(-0.199444 0.0245354 0)
(-0.223317 0.0228273 0)
(-0.242361 0.0193706 0)
(-0.255377 0.0142295 0)
(-0.261509 0.0076366 0)
(-0.260281 -1.83474e-05 0)
(-0.251627 -0.00821931 0)
(-0.235739 -0.0163954 0)
(-0.213069 -0.0239925 0)
(-0.184382 -0.0304484 0)
(-0.150764 -0.0352295 0)
(-0.113627 -0.0378727 0)
(-0.0746711 -0.0380341 0)
(-0.035804 -0.0355703 0)
(0.00104102 -0.0306644 0)
(0.0340176 -0.0238146 0)
(0.0614489 -0.015747 0)
(0.0820181 -0.0072827 0)
(0.0950045 0.000695683 0)
(0.100273 0.00734487 0)
(0.0984383 0.0120828 0)
(0.0909559 0.0147121 0)
(0.0796117 0.0154348 0)
(0.0662318 0.0147155 0)
(0.0524141 0.0131077 0)
(0.0393366 0.0111171 0)
(0.0276935 0.00911026 0)
(0.0177732 0.0072487 0)
(0.00968207 0.00543455 0)
(0.00372614 0.00334312 0)
(0.000329277 0.000918407 0)
(0.000785772 -0.0044951 0)
(0.00568894 -0.00969413 0)
(0.0117184 -0.0109167 0)
(0.0169072 -0.00900553 0)
(0.0197646 -0.00542393 0)
(0.0197138 -0.00146977 0)
(0.0166723 0.00215253 0)
(0.0106381 0.00542292 0)
(0.00138595 0.0087805 0)
(-0.0116158 0.0127916 0)
(-0.0290802 0.0178423 0)
(-0.0516347 0.0240097 0)
(-0.0795849 0.0310824 0)
(-0.112701 0.0385968 0)
(-0.15011 0.0458728 0)
(-0.190337 0.0520917 0)
(-0.231492 0.0564297 0)
(-0.27154 0.0582008 0)
(-0.308558 0.056959 0)
(-0.340921 0.0525377 0)
(-0.367389 0.045036 0)
(-0.387118 0.0347697 0)
(-0.399597 0.0222125 0)
(-0.404563 0.00794335 0)
(-0.40194 -0.00738873 0)
(-0.391706 -0.0230991 0)
(-0.373901 -0.0384748 0)
(-0.348791 -0.0527308 0)
(-0.316858 -0.0650336 0)
(-0.278874 -0.0745403 0)
(-0.235933 -0.0804757 0)
(-0.189468 -0.0822339 0)
(-0.141236 -0.0794861 0)
(-0.0932439 -0.0722851 0)
(-0.047606 -0.0611784 0)
(-0.00631444 -0.0471729 0)
(0.0289084 -0.0315606 0)
(0.0567039 -0.0157879 0)
(0.0763806 -0.00114486 0)
(0.0876651 0.0111719 0)
(0.0908205 0.0202548 0)
(0.0871005 0.0257405 0)
(0.0782105 0.0278614 0)
(0.0660404 0.0273071 0)
(0.0523905 0.0249764 0)
(0.0387216 0.0217247 0)
(0.026034 0.0181221 0)
(0.0149679 0.0142391 0)
(0.00625644 0.00958293 0)
(0.000705204 0.00358661 0)
(0.000917695 -0.00772677 0)
(0.00606868 -0.0155919 0)
(0.0115468 -0.0165376 0)
(0.0151648 -0.0124517 0)
(0.0154193 -0.00573385 0)
(0.0117516 0.00169921 0)
(0.00393734 0.00894192 0)
(-0.00837227 0.0161027 0)
(-0.0258423 0.0239442 0)
(-0.0492882 0.0332175 0)
(-0.0793474 0.0442027 0)
(-0.116118 0.056559 0)
(-0.158931 0.0694106 0)
(-0.206336 0.0815349 0)
(-0.256292 0.0916033 0)
(-0.306516 0.0984297 0)
(-0.354835 0.101166 0)
(-0.399441 0.0993916 0)
(-0.439001 0.093092 0)
(-0.472635 0.0825671 0)
(-0.499819 0.0683183 0)
(-0.520259 0.0509465 0)
(-0.533757 0.031078 0)
(-0.540144 0.00934482 0)
(-0.539267 -0.0135859 0)
(-0.530946 -0.0369784 0)
(-0.515046 -0.0599929 0)
(-0.491533 -0.0816707 0)
(-0.460522 -0.100936 0)
(-0.422341 -0.116642 0)
(-0.377602 -0.127661 0)
(-0.327313 -0.132998 0)
(-0.272951 -0.131952 0)
(-0.21646 -0.124315 0)
(-0.16015 -0.110523 0)
(-0.106498 -0.0916926 0)
(-0.0578552 -0.0695199 0)
(-0.0160931 -0.0460071 0)
(0.017595 -0.0230694 0)
(0.0426201 -0.00244946 0)
(0.0589194 0.0146163 0)
(0.0667533 0.0272045 0)
(0.0672331 0.0349403 0)
(0.0619146 0.0381656 0)
(0.0525873 0.0377847 0)
(0.0410429 0.034933 0)
(0.0288321 0.030568 0)
(0.01719 0.0250317 0)
(0.00742142 0.0177399 0)
(0.000862119 0.00736581 0)
(0.000999774 -0.011018 0)
(0.00561124 -0.0208275 0)
(0.00922981 -0.0203486 0)
(0.0096794 -0.0129025 0)
(0.00562178 -0.00193672 0)
(-0.00346176 0.0101257 0)
(-0.0180357 0.0223841 0)
(-0.0388556 0.0352818 0)
(-0.0668552 0.0497588 0)
(-0.102687 0.066341 0)
(-0.146248 0.0846559 0)
(-0.196466 0.103473 0)
(-0.2514 0.121062 0)
(-0.308604 0.135629 0)
(-0.365573 0.145687 0)
(-0.420126 0.150286 0)
(-0.470619 0.149059 0)
(-0.515968 0.142131 0)
(-0.555541 0.129954 0)
(-0.589012 0.113148 0)
(-0.616228 0.0923892 0)
(-0.637103 0.0683367 0)
(-0.651561 0.0416173 0)
(-0.65953 0.0128648 0)
(-0.660919 -0.0172551 0)
(-0.655586 -0.0480254 0)
(-0.643298 -0.0786016 0)
(-0.623796 -0.107959 0)
(-0.596803 -0.134901 0)
(-0.562074 -0.158088 0)
(-0.519545 -0.176059 0)
(-0.469521 -0.187334 0)
(-0.412827 -0.190647 0)
(-0.350932 -0.185236 0)
(-0.286032 -0.171092 0)
(-0.22097 -0.149139 0)
(-0.158915 -0.121265 0)
(-0.102869 -0.0900759 0)
(-0.0551164 -0.0584268 0)
(-0.0168461 -0.028834 0)
(0.0118162 -0.0030725 0)
(0.0312502 0.0176559 0)
(0.0420096 0.0326814 0)
(0.0452986 0.0418499 0)
(0.0426368 0.0457001 0)
(0.0357506 0.0453006 0)
(0.0264031 0.0417606 0)
(0.0162525 0.0356006 0)
(0.00711051 0.0261578 0)
(0.000796568 0.0113831 0)
(0.000995788 -0.0139232 0)
(0.00416243 -0.024295 0)
(0.0045824 -0.0208794 0)
(0.000398083 -0.00872782 0)
(-0.00946358 0.00765799 0)
(-0.025565 0.0255961 0)
(-0.0486491 0.0444848 0)
(-0.0796962 0.0649972 0)
(-0.119421 0.0877901 0)
(-0.16764 0.112551 0)
(-0.22301 0.137824 0)
(-0.283227 0.161457 0)
(-0.345526 0.181229 0)
(-0.407213 0.195362 0)
(-0.466067 0.202787 0)
(-0.520503 0.203156 0)
(-0.569548 0.196694 0)
(-0.612692 0.183979 0)
(-0.649738 0.165752 0)
(-0.680692 0.1428 0)
(-0.705681 0.115879 0)
(-0.724892 0.0856789 0)
(-0.738548 0.0528519 0)
(-0.746863 0.0180252 0)
(-0.749934 -0.0182211 0)
(-0.747738 -0.0552944 0)
(-0.740093 -0.0924681 0)
(-0.726591 -0.128838 0)
(-0.706594 -0.163317 0)
(-0.679313 -0.194541 0)
(-0.643968 -0.220824 0)
(-0.599938 -0.240275 0)
(-0.546965 -0.251021 0)
(-0.485479 -0.251479 0)
(-0.416906 -0.240717 0)
(-0.343793 -0.21888 0)
(-0.269708 -0.187487 0)
(-0.198837 -0.149399 0)
(-0.135231 -0.108384 0)
(-0.0818946 -0.0683177 0)
(-0.0401177 -0.0323198 0)
(-0.00952396 -0.00225419 0)
(0.0110541 0.0211475 0)
(0.0228071 0.0376043 0)
(0.0271635 0.0473321 0)
(0.0257869 0.051113 0)
(0.0204678 0.0499411 0)
(0.0130796 0.0443213 0)
(0.00574998 0.0334785 0)
(0.000591104 0.0148945 0)
(0.000839993 -0.0158649 0)
(0.00148497 -0.0247714 0)
(-0.00259345 -0.0166966 0)
(-0.0126827 0.00144735 0)
(-0.0295675 0.0244014 0)
(-0.053922 0.0495683 0)
(-0.0866459 0.0766394 0)
(-0.128499 0.106078 0)
(-0.179356 0.137638 0)
(-0.237789 0.169773 0)
(-0.301272 0.200002 0)
(-0.366773 0.225693 0)
(-0.431377 0.24473 0)
(-0.492721 0.25585 0)
(-0.549146 0.258661 0)
(-0.599658 0.253444 0)
(-0.643778 0.240903 0)
(-0.681405 0.221946 0)
(-0.71272 0.197549 0)
(-0.738116 0.168664 0)
(-0.758111 0.136148 0)
(-0.773292 0.100755 0)
(-0.784254 0.0631352 0)
(-0.791473 0.0238057 0)
(-0.795245 -0.0168199 0)
(-0.795734 -0.0583184 0)
(-0.792881 -0.10022 0)
(-0.78622 -0.141952 0)
(-0.774969 -0.182706 0)
(-0.758066 -0.221278 0)
(-0.734188 -0.256033 0)
(-0.701813 -0.284957 0)
(-0.659498 -0.305719 0)
(-0.60629 -0.315863 0)
(-0.542138 -0.313259 0)
(-0.4683 -0.296693 0)
(-0.387667 -0.266434 0)
(-0.304735 -0.224624 0)
(-0.225044 -0.175276 0)
(-0.154064 -0.123621 0)
(-0.095793 -0.0748557 0)
(-0.0516904 -0.0327724 0)
(-0.0207417 0.000876359 0)
(-0.000738876 0.0259544 0)
(0.0103136 0.0427938 0)
(0.0143181 0.0520165 0)
(0.0132106 0.0544197 0)
(0.00901496 0.0503563 0)
(0.00400155 0.0389288 0)
(0.000362326 0.0174931 0)
(0.00046528 -0.0160985 0)
(-0.00257175 -0.0209764 0)
(-0.0122815 -0.00662197 0)
(-0.0292286 0.0186534 0)
(-0.0539433 0.0492657 0)
(-0.0871774 0.0828702 0)
(-0.129655 0.119115 0)
(-0.181385 0.157653 0)
(-0.241044 0.196934 0)
(-0.306046 0.234247 0)
(-0.373154 0.266543 0)
(-0.4392 0.291285 0)
(-0.50158 0.306907 0)
(-0.558449 0.312874 0)
(-0.608692 0.309476 0)
(-0.651803 0.297544 0)
(-0.687755 0.278206 0)
(-0.716905 0.252703 0)
(-0.739909 0.222273 0)
(-0.757608 0.188038 0)
(-0.77092 0.150946 0)
(-0.78076 0.111753 0)
(-0.787933 0.0710026 0)
(-0.793048 0.0290309 0)
(-0.796569 -0.0139143 0)
(-0.798798 -0.0576316 0)
(-0.799758 -0.101998 0)
(-0.799107 -0.146809 0)
(-0.796235 -0.191597 0)
(-0.790135 -0.235539 0)
(-0.779294 -0.277398 0)
(-0.761725 -0.315386 0)
(-0.735172 -0.34705 0)
(-0.697372 -0.369404 0)
(-0.646478 -0.379279 0)
(-0.581717 -0.373871 0)
(-0.504111 -0.351466 0)
(-0.416952 -0.3123 0)
(-0.325817 -0.259201 0)
(-0.237857 -0.197604 0)
(-0.160267 -0.134589 0)
(-0.0982296 -0.0769949 0)
(-0.0533064 -0.0293673 0)
(-0.0235726 0.006876 0)
(-0.00555526 0.0324538 0)
(0.0036186 0.0482973 0)
(0.00646125 0.0552509 0)
(0.00529114 0.0535899 0)
(0.00248831 0.0423782 0)
(0.000209315 0.0191578 0)
(-0.000171557 -0.0137896 0)
(-0.00796328 -0.0118363 0)
(-0.0241171 0.0101945 0)
(-0.0484312 0.0434964 0)
(-0.0812238 0.0826303 0)
(-0.123131 0.125378 0)
(-0.174292 0.170811 0)
(-0.233634 0.217333 0)
(-0.298694 0.262093 0)
(-0.366136 0.30164 0)
(-0.43254 0.332911 0)
(-0.494998 0.353892 0)
(-0.551396 0.36378 0)
(-0.600431 0.362794 0)
(-0.641523 0.35188 0)
(-0.674701 0.332411 0)
(-0.700495 0.305961 0)
(-0.719811 0.274121 0)
(-0.733777 0.238344 0)
(-0.743587 0.199841 0)
(-0.750379 0.15954 0)
(-0.755151 0.118077 0)
(-0.758683 0.0758065 0)
(-0.761574 0.0328971 0)
(-0.764303 -0.0105783 0)
(-0.767169 -0.0546628 0)
(-0.77026 -0.0994832 0)
(-0.773504 -0.145085 0)
(-0.776622 -0.191358 0)
(-0.778923 -0.237997 0)
(-0.779195 -0.284342 0)
(-0.775655 -0.329114 0)
(-0.765885 -0.370256 0)
(-0.746862 -0.404888 0)
(-0.715309 -0.429362 0)
(-0.668372 -0.439577 0)
(-0.604496 -0.431723 0)
(-0.524359 -0.403376 0)
(-0.43164 -0.354704 0)
(-0.333161 -0.289364 0)
(-0.23797 -0.214562 0)
(-0.155213 -0.139705 0)
(-0.0912412 -0.0736142 0)
(-0.0473966 -0.0215263 0)
(-0.0204248 0.0158107 0)
(-0.0054689 0.040119 0)
(0.00120715 0.0527827 0)
(0.00267534 0.0543901 0)
(0.00160653 0.044204 0)
(0.000183977 0.0201691 0)
(-0.00107219 -0.00817004 0)
(-0.0144136 0.00339843 0)
(-0.0373631 0.0341326 0)
(-0.0690367 0.0760338 0)
(-0.109491 0.12412 0)
(-0.15898 0.175932 0)
(-0.216761 0.229498 0)
(-0.280676 0.281859 0)
(-0.347454 0.329204 0)
(-0.413481 0.367864 0)
(-0.475528 0.395207 0)
(-0.531151 0.409986 0)
(-0.578802 0.412233 0)
(-0.617781 0.402947 0)
(-0.648144 0.383753 0)
(-0.670577 0.356592 0)
(-0.686225 0.323466 0)
(-0.696487 0.286215 0)
(-0.702792 0.246356 0)
(-0.706444 0.205018 0)
(-0.708524 0.162948 0)
(-0.709852 0.120557 0)
(-0.711006 0.0780017 0)
(-0.712406 0.0352957 0)
(-0.714362 -0.00765702 0)
(-0.717098 -0.0510387 0)
(-0.720754 -0.095043 0)
(-0.725473 -0.139844 0)
(-0.731267 -0.18561 0)
(-0.737917 -0.23245 0)
(-0.744878 -0.280224 0)
(-0.75107 -0.32836 0)
(-0.754595 -0.375648 0)
(-0.752585 -0.419947 0)
(-0.741304 -0.457907 0)
(-0.716509 -0.484986 0)
(-0.674214 -0.495911 0)
(-0.611869 -0.485657 0)
(-0.529755 -0.45089 0)
(-0.432075 -0.391673 0)
(-0.327161 -0.312793 0)
(-0.226232 -0.223838 0)
(-0.140477 -0.13717 0)
(-0.0771135 -0.0638118 0)
(-0.0365882 -0.00930271 0)
(-0.0137789 0.0268103 0)
(-0.0026248 0.0471533 0)
(0.00130447 0.0532542 0)
(0.00144734 0.0450219 0)
(0.000288239 0.020947 0)
(-0.00217933 0.00130743 0)
(-0.0214247 0.0250159 0)
(-0.0510181 0.0650543 0)
(-0.0894958 0.115734 0)
(-0.136545 0.172602 0)
(-0.191808 0.232549 0)
(-0.253589 0.292322 0)
(-0.318881 0.347799 0)
(-0.384017 0.394674 0)
(-0.445477 0.429527 0)
(-0.500456 0.450449 0)
(-0.547094 0.457096 0)
(-0.584511 0.450405 0)
(-0.612732 0.432202 0)
(-0.632557 0.404814 0)
(-0.645346 0.370701 0)
(-0.65275 0.332144 0)
(-0.656429 0.291015 0)
(-0.657833 0.248672 0)
(-0.658091 0.205975 0)
(-0.657988 0.163367 0)
(-0.658014 0.120997 0)
(-0.65845 0.0788403 0)
(-0.659443 0.0367794 0)
(-0.661087 -0.00536658 0)
(-0.663522 -0.0477782 0)
(-0.666871 -0.090615 0)
(-0.671321 -0.13407 0)
(-0.677068 -0.178396 0)
(-0.684312 -0.223854 0)
(-0.693142 -0.270657 0)
(-0.703296 -0.318895 0)
(-0.713867 -0.3683 0)
(-0.723007 -0.417837 0)
(-0.727644 -0.465236 0)
(-0.723377 -0.50664 0)
(-0.704851 -0.536524 0)
(-0.666802 -0.548172 0)
(-0.605651 -0.534968 0)
(-0.521356 -0.492482 0)
(-0.418873 -0.420877 0)
(-0.308426 -0.326716 0)
(-0.20374 -0.222882 0)
(-0.117975 -0.125394 0)
(-0.0584534 -0.0473697 0)
(-0.0236422 0.00624844 0)
(-0.00618786 0.0377655 0)
(0.000680332 0.0503943 0)
(0.00181034 0.0453582 0)
(0.000485844 0.0218748 0)
(-0.00335773 0.0148765 0)
(-0.0283495 0.052815 0)
(-0.0639625 0.102335 0)
(-0.1082 0.161513 0)
(-0.160268 0.226356 0)
(-0.219097 0.292803 0)
(-0.282162 0.356345 0)
(-0.34595 0.412058 0)
(-0.406757 0.455608 0)
(-0.461416 0.484173 0)
(-0.507699 0.496767 0)
(-0.544451 0.494059 0)
(-0.571572 0.477962 0)
(-0.589895 0.451153 0)
(-0.600939 0.416585 0)
(-0.606581 0.377048 0)
(-0.608703 0.334839 0)
(-0.608908 0.291596 0)
(-0.608382 0.248311 0)
(-0.607873 0.20545 0)
(-0.607766 0.163122 0)
(-0.608204 0.121246 0)
(-0.609189 0.0796603 0)
(-0.610648 0.0381847 0)
(-0.612533 -0.00334841 0)
(-0.614902 -0.0450572 0)
(-0.61781 -0.087041 0)
(-0.62139 -0.129418 0)
(-0.625885 -0.17235 0)
(-0.63165 -0.216056 0)
(-0.639087 -0.260866 0)
(-0.64853 -0.307211 0)
(-0.660065 -0.355478 0)
(-0.67318 -0.405708 0)
(-0.686241 -0.457123 0)
(-0.695991 -0.507465 0)
(-0.697353 -0.552327 0)
(-0.683846 -0.584895 0)
(-0.648851 -0.596592 0)
(-0.587721 -0.578903 0)
(-0.500272 -0.52629 0)
(-0.392719 -0.439522 0)
(-0.27781 -0.32802 0)
(-0.172117 -0.20926 0)
(-0.0902931 -0.103557 0)
(-0.0383198 -0.0252646 0)
(-0.0113357 0.0229143 0)
(-0.000153644 0.0453712 0)
(0.00229752 0.0453571 0)
(0.000720686 0.0231575 0)
(-0.00444342 0.0323852 0)
(-0.0345357 0.0861314 0)
(-0.0751394 0.144917 0)
(-0.123721 0.211866 0)
(-0.178946 0.283344 0)
(-0.239062 0.354219 0)
(-0.300963 0.418935 0)
(-0.360957 0.472185 0)
(-0.41558 0.509996 0)
(-0.462193 0.530404 0)
(-0.499266 0.5335 0)
(-0.526447 0.521063 0)
(-0.544472 0.496009 0)
(-0.554921 0.461778 0)
(-0.559843 0.421737 0)
(-0.561327 0.378705 0)
(-0.561144 0.334694 0)
(-0.560562 0.290886 0)
(-0.560317 0.24779 0)
(-0.56072 0.205469 0)
(-0.561797 0.163762 0)
(-0.563438 0.122441 0)
(-0.565485 0.0812907 0)
(-0.567779 0.0401424 0)
(-0.57022 -0.00111501 0)
(-0.572811 -0.0425401 0)
(-0.575568 -0.0841678 0)
(-0.578546 -0.126018 0)
(-0.581914 -0.168126 0)
(-0.585943 -0.210595 0)
(-0.591023 -0.253655 0)
(-0.597691 -0.297714 0)
(-0.606573 -0.34336 0)
(-0.618153 -0.391291 0)
(-0.632322 -0.441999 0)
(-0.647725 -0.495088 0)
(-0.661039 -0.548278 0)
(-0.66652 -0.59641 0)
(-0.656407 -0.631035 0)
(-0.622591 -0.641261 0)
(-0.559485 -0.616338 0)
(-0.467301 -0.549816 0)
(-0.354347 -0.444133 0)
(-0.236693 -0.31337 0)
(-0.133899 -0.181253 0)
(-0.0609069 -0.0724159 0)
(-0.0200553 -0.000194252 0)
(-0.0022675 0.0369481 0)
(0.00247039 0.0446333 0)
(0.000940115 0.0247557 0)
(-0.00528809 0.0532719 0)
(-0.0394221 0.123907 0)
(-0.0836905 0.19143 0)
(-0.134993 0.265058 0)
(-0.191457 0.34149 0)
(-0.250781 0.41457 0)
(-0.30955 0.478007 0)
(-0.364168 0.526502 0)
(-0.411604 0.556755 0)
(-0.449867 0.56786 0)
(-0.478207 0.561105 0)
(-0.4971 0.539416 0)
(-0.508043 0.506632 0)
(-0.513162 0.466738 0)
(-0.514719 0.423193 0)
(-0.51467 0.378519 0)
(-0.514403 0.334198 0)
(-0.51469 0.290844 0)
(-0.515798 0.248497 0)
(-0.51768 0.206915 0)
(-0.52014 0.165788 0)
(-0.522964 0.124847 0)
(-0.525968 0.0839016 0)
(-0.529011 0.0428364 0)
(-0.53201 0.0015953 0)
(-0.534963 -0.0398376 0)
(-0.537889 -0.08145 0)
(-0.540782 -0.12321 0)
(-0.543702 -0.165081 0)
(-0.546758 -0.207055 0)
(-0.550168 -0.249188 0)
(-0.554333 -0.291674 0)
(-0.559881 -0.334949 0)
(-0.567639 -0.379793 0)
(-0.578455 -0.427273 0)
(-0.592701 -0.478367 0)
(-0.609387 -0.533083 0)
(-0.625075 -0.58908 0)
(-0.633179 -0.640176 0)
(-0.624473 -0.675695 0)
(-0.589358 -0.68176 0)
(-0.521685 -0.645177 0)
(-0.422931 -0.559385 0)
(-0.304703 -0.430482 0)
(-0.18731 -0.279819 0)
(-0.0928437 -0.138945 0)
(-0.0339612 -0.0351787 0)
(-0.00650185 0.0231791 0)
(0.00201323 0.042317 0)
(0.00111664 0.0264193 0)
(-0.00577038 0.0766312 0)
(-0.0425964 0.164809 0)
(-0.0890423 0.240326 0)
(-0.1414 0.319317 0)
(-0.197319 0.398894 0)
(-0.254137 0.472057 0)
(-0.308376 0.532113 0)
(-0.356739 0.574111 0)
(-0.396753 0.595663 0)
(-0.427144 0.597068 0)
(-0.44795 0.58087 0)
(-0.460397 0.551085 0)
(-0.466543 0.512271 0)
(-0.468756 0.468636 0)
(-0.469181 0.423386 0)
(-0.469377 0.378478 0)
(-0.47021 0.33475 0)
(-0.47196 0.292271 0)
(-0.474536 0.250736 0)
(-0.47769 0.209744 0)
(-0.48116 0.168961 0)
(-0.484748 0.128166 0)
(-0.488331 0.0872337 0)
(-0.491833 0.0461091 0)
(-0.495217 0.00477441 0)
(-0.498513 -0.0367627 0)
(-0.501751 -0.0784762 0)
(-0.504902 -0.120335 0)
(-0.507953 -0.162287 0)
(-0.510901 -0.20427 0)
(-0.513784 -0.246218 0)
(-0.516747 -0.288125 0)
(-0.520123 -0.330141 0)
(-0.524557 -0.372738 0)
(-0.531063 -0.416859 0)
(-0.540867 -0.463952 0)
(-0.554813 -0.515563 0)
(-0.572214 -0.57216 0)
(-0.589382 -0.631134 0)
(-0.598648 -0.684664 0)
(-0.589068 -0.718955 0)
(-0.549603 -0.716463 0)
(-0.474289 -0.661765 0)
(-0.367356 -0.549938 0)
(-0.245343 -0.39403 0)
(-0.133351 -0.226073 0)
(-0.0540415 -0.0858251 0)
(-0.013349 0.00164599 0)
(0.000774104 0.0372273 0)
(0.00125409 0.0277894 0)
(-0.00581471 0.10133 0)
(-0.0438261 0.207356 0)
(-0.0909305 0.290029 0)
(-0.142773 0.372993 0)
(-0.196626 0.453976 0)
(-0.249656 0.525381 0)
(-0.298526 0.580435 0)
(-0.340372 0.614803 0)
(-0.373342 0.627186 0)
(-0.396879 0.61917 0)
(-0.411733 0.59453 0)
(-0.419701 0.558204 0)
(-0.423129 0.51517 0)
(-0.424319 0.46951 0)
(-0.425045 0.423891 0)
(-0.426344 0.379569 0)
(-0.428579 0.336759 0)
(-0.431662 0.295121 0)
(-0.435313 0.254164 0)
(-0.439236 0.213472 0)
(-0.443213 0.172779 0)
(-0.447128 0.131947 0)
(-0.45094 0.0909254 0)
(-0.454637 0.0497007 0)
(-0.458224 0.00827587 0)
(-0.461763 -0.0333384 0)
(-0.465293 -0.0751259 0)
(-0.468788 -0.117079 0)
(-0.472217 -0.159163 0)
(-0.475535 -0.201318 0)
(-0.478678 -0.243453 0)
(-0.481599 -0.28546 0)
(-0.484335 -0.327269 0)
(-0.487143 -0.36897 0)
(-0.490674 -0.411035 0)
(-0.496096 -0.454602 0)
(-0.504988 -0.501587 0)
(-0.518654 -0.55419 0)
(-0.536629 -0.613255 0)
(-0.554673 -0.675439 0)
(-0.563522 -0.730326 0)
(-0.55019 -0.759791 0)
(-0.502644 -0.741977 0)
(-0.416574 -0.660323 0)
(-0.301091 -0.515055 0)
(-0.179337 -0.331225 0)
(-0.0805222 -0.154852 0)
(-0.0231576 -0.0304518 0)
(-0.0012806 0.0280322 0)
(0.0013719 0.0284889 0)
(-0.0053978 0.126124 0)
(-0.0430549 0.250042 0)
(-0.0893744 0.339048 0)
(-0.13932 0.424662 0)
(-0.189908 0.505526 0)
(-0.238301 0.57373 0)
(-0.281448 0.622694 0)
(-0.316992 0.648901 0)
(-0.343704 0.652247 0)
(-0.361677 0.635615 0)
(-0.372221 0.603886 0)
(-0.377466 0.562669 0)
(-0.379768 0.517034 0)
(-0.381123 0.470635 0)
(-0.382816 0.425435 0)
(-0.385378 0.381991 0)
(-0.388791 0.340021 0)
(-0.392771 0.29895 0)
(-0.396996 0.258256 0)
(-0.401228 0.2176 0)
(-0.405341 0.176818 0)
(-0.409308 0.135858 0)
(-0.413153 0.0947217 0)
(-0.416904 0.0534179 0)
(-0.420586 0.0119515 0)
(-0.424273 -0.0296765 0)
(-0.428014 -0.0714652 0)
(-0.431794 -0.11343 0)
(-0.435589 -0.155565 0)
(-0.439358 -0.197844 0)
(-0.443019 -0.240205 0)
(-0.446456 -0.282539 0)
(-0.449544 -0.324692 0)
(-0.452229 -0.366516 0)
(-0.454679 -0.408032 0)
(-0.457533 -0.44974 0)
(-0.46213 -0.49303 0)
(-0.470444 -0.540399 0)
(-0.484212 -0.594789 0)
(-0.502916 -0.657229 0)
(-0.521172 -0.722785 0)
(-0.52748 -0.776817 0)
(-0.506707 -0.7953 0)
(-0.446889 -0.752097 0)
(-0.347737 -0.63256 0)
(-0.225995 -0.448192 0)
(-0.112348 -0.242568 0)
(-0.0364038 -0.0761133 0)
(-0.00422439 0.0132301 0)
(0.0014615 0.028108 0)
(-0.00454428 0.149775 0)
(-0.0403753 0.291428 0)
(-0.0846157 0.386062 0)
(-0.131525 0.47318 0)
(-0.177976 0.55271 0)
(-0.221262 0.616718 0)
(-0.258709 0.659031 0)
(-0.288485 0.67708 0)
(-0.30993 0.671993 0)
(-0.323664 0.647874 0)
(-0.331357 0.61052 0)
(-0.335231 0.565918 0)
(-0.337429 0.518934 0)
(-0.339518 0.472598 0)
(-0.342291 0.428133 0)
(-0.345886 0.385502 0)
(-0.350065 0.344101 0)
(-0.354494 0.303281 0)
(-0.358908 0.262587 0)
(-0.363165 0.221798 0)
(-0.367232 0.180848 0)
(-0.371146 0.139746 0)
(-0.374966 0.098518 0)
(-0.378735 0.0571774 0)
(-0.382479 0.0157193 0)
(-0.386265 -0.025869 0)
(-0.390153 -0.0675987 0)
(-0.394132 -0.109503 0)
(-0.39819 -0.151597 0)
(-0.402302 -0.193889 0)
(-0.406413 -0.236362 0)
(-0.410422 -0.278954 0)
(-0.414174 -0.321536 0)
(-0.417478 -0.363904 0)
(-0.420185 -0.405833 0)
(-0.42239 -0.447277 0)
(-0.42476 -0.488796 0)
(-0.428867 -0.532161 0)
(-0.437116 -0.580672 0)
(-0.451566 -0.638107 0)
(-0.471193 -0.705115 0)
(-0.48861 -0.7735 0)
(-0.489293 -0.822052 0)
(-0.456339 -0.819437 0)
(-0.380132 -0.737026 0)
(-0.267997 -0.568478 0)
(-0.146952 -0.346021 0)
(-0.0534048 -0.137554 0)
(-0.00822314 -0.00881272 0)
(0.00147495 0.0261905 0)
(-0.00331675 0.17114 0)
(-0.0359892 0.330219 0)
(-0.0770472 0.429962 0)
(-0.120032 0.517686 0)
(-0.161771 0.595024 0)
(-0.199781 0.654286 0)
(-0.231809 0.689861 0)
(-0.256515 0.700185 0)
(-0.273718 0.687587 0)
(-0.284401 0.657249 0)
(-0.290391 0.61565 0)
(-0.293795 0.568884 0)
(-0.296415 0.521392 0)
(-0.299361 0.475504 0)
(-0.303025 0.431769 0)
(-0.307293 0.389717 0)
(-0.311849 0.348586 0)
(-0.316404 0.307762 0)
(-0.320786 0.26691 0)
(-0.324949 0.22592 0)
(-0.328924 0.184798 0)
(-0.332779 0.143584 0)
(-0.336587 0.102308 0)
(-0.340388 0.0609719 0)
(-0.344197 0.019559 0)
(-0.348071 -0.0219565 0)
(-0.352073 -0.063593 0)
(-0.3562 -0.105396 0)
(-0.360435 -0.147394 0)
(-0.364773 -0.189616 0)
(-0.369187 -0.232079 0)
(-0.373614 -0.274774 0)
(-0.377939 -0.317639 0)
(-0.381973 -0.360525 0)
(-0.385466 -0.40317 0)
(-0.388194 -0.445256 0)
(-0.390206 -0.486685 0)
(-0.392256 -0.528183 0)
(-0.39625 -0.572157 0)
(-0.405106 -0.623012 0)
(-0.420986 -0.685263 0)
(-0.4415 -0.757914 0)
(-0.455963 -0.826721 0)
(-0.446352 -0.860871 0)
(-0.39572 -0.821524 0)
(-0.300795 -0.683225 0)
(-0.180788 -0.459532 0)
(-0.0736134 -0.215126 0)
(-0.0135241 -0.0398826 0)
(0.00139054 0.0222556 0)
(-0.00180411 0.189238 0)
(-0.0301679 0.365298 0)
(-0.0671422 0.469862 0)
(-0.105552 0.557582 0)
(-0.14225 0.632229 0)
(-0.175029 0.686602 0)
(-0.20206 0.715743 0)
(-0.222437 0.719089 0)
(-0.236331 0.700068 0)
(-0.244923 0.664764 0)
(-0.250012 0.620101 0)
(-0.253457 0.572059 0)
(-0.256661 0.524541 0)
(-0.260339 0.479193 0)
(-0.264596 0.436021 0)
(-0.269201 0.394282 0)
(-0.273854 0.35318 0)
(-0.278349 0.312198 0)
(-0.282608 0.271124 0)
(-0.286653 0.229935 0)
(-0.290549 0.188678 0)
(-0.294373 0.147398 0)
(-0.298193 0.106115 0)
(-0.302044 0.0648183 0)
(-0.305929 0.0234764 0)
(-0.309889 -0.017946 0)
(-0.313997 -0.0594716 0)
(-0.318252 -0.101155 0)
(-0.32263 -0.143031 0)
(-0.327133 -0.185141 0)
(-0.331749 -0.227521 0)
(-0.336448 -0.270197 0)
(-0.341163 -0.313169 0)
(-0.345764 -0.356371 0)
(-0.350033 -0.399621 0)
(-0.353661 -0.442577 0)
(-0.356361 -0.484825 0)
(-0.358181 -0.526262 0)
(-0.360085 -0.567984 0)
(-0.364495 -0.613437 0)
(-0.374859 -0.6685 0)
(-0.392859 -0.737858 0)
(-0.413311 -0.816189 0)
(-0.420858 -0.87881 0)
(-0.394626 -0.882597 0)
(-0.321498 -0.784926 0)
(-0.210287 -0.57604 0)
(-0.0954295 -0.306792 0)
(-0.0203515 -0.0816568 0)
(0.00125063 0.0158192 0)
(-0.000110528 0.203292 0)
(-0.0232178 0.395739 0)
(-0.0553986 0.505089 0)
(-0.0887858 0.592492 0)
(-0.1203 0.664277 0)
(-0.148025 0.713962 0)
(-0.170533 0.737275 0)
(-0.18727 0.734587 0)
(-0.19863 0.710282 0)
(-0.205836 0.671151 0)
(-0.210522 0.624356 0)
(-0.214223 0.575625 0)
(-0.217961 0.528291 0)
(-0.222141 0.483408 0)
(-0.226703 0.440586 0)
(-0.231391 0.398937 0)
(-0.23597 0.35771 0)
(-0.24032 0.316505 0)
(-0.244435 0.27521 0)
(-0.248373 0.233859 0)
(-0.252212 0.192515 0)
(-0.256023 0.151213 0)
(-0.259866 0.109958 0)
(-0.263772 0.0687266 0)
(-0.267733 0.0274769 0)
(-0.271776 -0.0138358 0)
(-0.275987 -0.0552357 0)
(-0.280372 -0.0967872 0)
(-0.284891 -0.13853 0)
(-0.289548 -0.180509 0)
(-0.294336 -0.222772 0)
(-0.29924 -0.265363 0)
(-0.304225 -0.30832 0)
(-0.309218 -0.351647 0)
(-0.31407 -0.395263 0)
(-0.318526 -0.43893 0)
(-0.322217 -0.482203 0)
(-0.324816 -0.52456 0)
(-0.32646 -0.566015 0)
(-0.32851 -0.608424 0)
(-0.334103 -0.656927 0)
(-0.347056 -0.719062 0)
(-0.367373 -0.797756 0)
(-0.384992 -0.878349 0)
(-0.379108 -0.920248 0)
(-0.329165 -0.868478 0)
(-0.232693 -0.688534 0)
(-0.116695 -0.408558 0)
(-0.0287051 -0.135285 0)
(0.00111774 0.00636979 0)
(0.00165429 0.212743 0)
(-0.0154555 0.420812 0)
(-0.0422985 0.535151 0)
(-0.0703763 0.622206 0)
(-0.096691 0.691248 0)
(-0.119603 0.736716 0)
(-0.138046 0.755018 0)
(-0.151727 0.74734 0)
(-0.161146 0.718857 0)
(-0.167438 0.676876 0)
(-0.171983 0.628645 0)
(-0.175966 0.579568 0)
(-0.180086 0.532458 0)
(-0.184531 0.487897 0)
(-0.189167 0.445228 0)
(-0.19377 0.403517 0)
(-0.198181 0.362091 0)
(-0.202353 0.320655 0)
(-0.206324 0.279173 0)
(-0.210168 0.237709 0)
(-0.213959 0.196322 0)
(-0.217757 0.155033 0)
(-0.221617 0.113834 0)
(-0.225568 0.0726922 0)
(-0.229596 0.031556 0)
(-0.233711 -0.00962736 0)
(-0.238021 -0.050882 0)
(-0.242542 -0.0922849 0)
(-0.247213 -0.13388 0)
(-0.252038 -0.175716 0)
(-0.257009 -0.217844 0)
(-0.262116 -0.260318 0)
(-0.267337 -0.303196 0)
(-0.272632 -0.346524 0)
(-0.277914 -0.390303 0)
(-0.283008 -0.434417 0)
(-0.287607 -0.478535 0)
(-0.291287 -0.522064 0)
(-0.293718 -0.564416 0)
(-0.295277 -0.606005 0)
(-0.298004 -0.650153 0)
(-0.305941 -0.704494 0)
(-0.322546 -0.777519 0)
(-0.343854 -0.865739 0)
(-0.352708 -0.937217 0)
(-0.3246 -0.93149 0)
(-0.246489 -0.791141 0)
(-0.135358 -0.515374 0)
(-0.0381956 -0.200538 0)
(0.000969412 -0.00656224 0)
(0.0033844 0.21728 0)
(-0.00718979 0.439929 0)
(-0.0282907 0.559703 0)
(-0.0508871 0.646636 0)
(-0.072063 0.713284 0)
(-0.0904133 0.755209 0)
(-0.105187 0.769447 0)
(-0.116271 0.757858 0)
(-0.124165 0.726224 0)
(-0.129825 0.682203 0)
(-0.134327 0.633027 0)
(-0.138522 0.583782 0)
(-0.142844 0.536843 0)
(-0.14735 0.492447 0)
(-0.151892 0.449784 0)
(-0.156305 0.407924 0)
(-0.1605 0.36628 0)
(-0.16448 0.324641 0)
(-0.168307 0.283019 0)
(-0.172055 0.241487 0)
(-0.175789 0.200094 0)
(-0.17956 0.158849 0)
(-0.183417 0.11773 0)
(-0.187394 0.0766992 0)
(-0.191476 0.0357012 0)
(-0.195648 -0.00532583 0)
(-0.200048 -0.0464091 0)
(-0.20471 -0.0876378 0)
(-0.209547 -0.129063 0)
(-0.214561 -0.170737 0)
(-0.219743 -0.212714 0)
(-0.225078 -0.255052 0)
(-0.230553 -0.297815 0)
(-0.236142 -0.341075 0)
(-0.241792 -0.384885 0)
(-0.247393 -0.429226 0)
(-0.252728 -0.473909 0)
(-0.257428 -0.518453 0)
(-0.261018 -0.56209 0)
(-0.263264 -0.604311 0)
(-0.265043 -0.646529 0)
(-0.269443 -0.694682 0)
(-0.281246 -0.759452 0)
(-0.301645 -0.846941 0)
(-0.319392 -0.937892 0)
(-0.309844 -0.97403 0)
(-0.251428 -0.87974 0)
(-0.149937 -0.622104 0)
(-0.0480919 -0.275655 0)
(0.000665041 -0.023422 0)
(0.00493828 0.216715 0)
(0.00127397 0.452749 0)
(-0.0137746 0.578489 0)
(-0.0307991 0.665769 0)
(-0.0469294 0.730551 0)
(-0.0609443 0.769739 0)
(-0.0723579 0.780934 0)
(-0.0811698 0.7665 0)
(-0.087803 0.732648 0)
(-0.0929743 0.687249 0)
(-0.0974348 0.637472 0)
(-0.101729 0.588126 0)
(-0.106089 0.541265 0)
(-0.110497 0.496901 0)
(-0.114831 0.454144 0)
(-0.118986 0.4121 0)
(-0.122934 0.370255 0)
(-0.12671 0.328456 0)
(-0.130382 0.28674 0)
(-0.134018 0.24518 0)
(-0.137675 0.203814 0)
(-0.141397 0.162639 0)
(-0.145228 0.121622 0)
(-0.149209 0.0807268 0)
(-0.153328 0.0398975 0)
(-0.157539 -0.000935698 0)
(-0.162014 -0.0418173 0)
(-0.166819 -0.0828363 0)
(-0.171834 -0.124062 0)
(-0.177057 -0.165547 0)
(-0.182477 -0.207349 0)
(-0.188078 -0.249526 0)
(-0.193846 -0.292148 0)
(-0.199761 -0.335297 0)
(-0.205787 -0.379057 0)
(-0.211853 -0.423476 0)
(-0.217812 -0.468485 0)
(-0.223389 -0.513758 0)
(-0.228142 -0.558597 0)
(-0.231592 -0.602089 0)
(-0.233786 -0.644222 0)
(-0.236508 -0.688599 0)
(-0.244197 -0.745278 0)
(-0.261237 -0.826626 0)
(-0.282821 -0.927228 0)
(-0.287553 -0.998031 0)
(-0.248281 -0.952087 0)
(-0.159692 -0.724253 0)
(-0.0575596 -0.357872 0)
(-4.98676e-06 -0.0446356 0)
(0.00616097 0.211277 0)
(0.00957277 0.45883 0)
(0.000925 0.591417 0)
(-0.0105128 0.679614 0)
(-0.0216968 0.743203 0)
(-0.0315518 0.780538 0)
(-0.0398193 0.789736 0)
(-0.0465607 0.77349 0)
(-0.0520734 0.738267 0)
(-0.0568014 0.69204 0)
(-0.06117 0.641903 0)
(-0.0654484 0.592468 0)
(-0.0697123 0.545586 0)
(-0.0739085 0.501146 0)
(-0.0779542 0.458237 0)
(-0.0818067 0.416007 0)
(-0.0854809 0.373994 0)
(-0.0890312 0.332081 0)
(-0.092525 0.290316 0)
(-0.0960241 0.248766 0)
(-0.0995778 0.207457 0)
(-0.103224 0.166377 0)