/*--------------------------------*- C++ -*----------------------------------*\
  =========                 |
  \\      /  F ield         | OpenFOAM: The Open Source CFD Toolbox
   \\    /   O peration     | Website:  https://openfoam.org
    \\  /    A nd           | Version:  7
     \\/     M anipulation  |
\*---------------------------------------------------------------------------*/
FoamFile
{
    version     2.0;
    format      ascii;
    class       volScalarField;
    location    "1500";
    object      p;
}
// * * * * * * * * * * * * * * * * * * * * * * * * * * * * * * * * * * * * * //

dimensions      [0 2 -2 0 0 0 0];

internalField   nonuniform List<scalar> 
2500
(
3.88779e-07
7.15661e-05
-8.30059e-06
-0.000307098
-0.000781484
-0.00136902
-0.00202952
-0.00275846
-0.00358153
-0.00453939
-0.0056721
-0.00700956
-0.00856866
-0.0103491
-0.0123276
-0.0144498
-0.0166237
-0.0187177
-0.0205669
-0.0219892
-0.0228098
-0.0228894
-0.0221527
-0.0206162
-0.0184059
-0.0157479
-0.0129638
-0.0104709
-0.00873119
-0.00818224
-0.00915686
-0.0117916
-0.0159741
-0.0214085
-0.0276354
-0.034093
-0.0402528
-0.045714
-0.0502457
-0.0537729
-0.0563457
-0.0580991
-0.0592077
-0.0598474
-0.0601702
-0.0602922
-0.0602913
-0.0602099
-0.0600706
-0.0599314
-6.85546e-05
4.30491e-06
-7.94793e-05
-0.000375924
-0.000828307
-0.00137247
-0.00197328
-0.00263218
-0.00337777
-0.00425034
-0.00528873
-0.00652288
-0.00797349
-0.0096483
-0.0115357
-0.0135988
-0.0157669
-0.0179283
-0.0199303
-0.0215892
-0.0227126
-0.0231306
-0.0227295
-0.0214851
-0.0194924
-0.0169686
-0.0142506
-0.0117741
-0.0100197
-0.00944408
-0.0103959
-0.0130339
-0.0172741
-0.0227666
-0.0290093
-0.035454
-0.0415464
-0.0468458
-0.051113
-0.0543213
-0.0565885
-0.0580962
-0.059038
-0.0595865
-0.059878
-0.0600097
-0.0600435
-0.0600089
-0.0599074
-0.0597757
-1.85138e-05
5.01877e-05
-5.672e-05
-0.000379185
-0.000831593
-0.00133818
-0.00186877
-0.00243617
-0.00308142
-0.00385209
-0.00479226
-0.00594232
-0.00734029
-0.0090206
-0.0110032
-0.0132771
-0.0157818
-0.0183958
-0.0209366
-0.0231779
-0.0248803
-0.0258301
-0.0258758
-0.0249663
-0.0231938
-0.020786
-0.0180797
-0.0155086
-0.0135654
-0.0127304
-0.0133853
-0.0157281
-0.0197137
-0.0250402
-0.0311986
-0.0375676
-0.0435696
-0.0487622
-0.0528651
-0.0558131
-0.0577362
-0.0588803
-0.0594988
-0.0597965
-0.0599179
-0.0599528
-0.0599475
-0.059912
-0.0598161
-0.0596718
0.000228717
0.00026678
0.000102337
-0.000278966
-0.000754766
-0.00123609
-0.001702
-0.00218458
-0.00274489
-0.00345399
-0.00438526
-0.00561816
-0.00723753
-0.00932036
-0.0119096
-0.014985
-0.0184435
-0.022097
-0.0256894
-0.0289302
-0.0315351
-0.0332645
-0.0339538
-0.0335391
-0.0320925
-0.0298169
-0.0270245
-0.0241363
-0.0216472
-0.0200641
-0.0198243
-0.0212072
-0.0242616
-0.0287743
-0.0342947
-0.0402198
-0.0459271
-0.0508977
-0.0548365
-0.0576537
-0.0594007
-0.0602892
-0.0606005
-0.0605947
-0.0604561
-0.0602945
-0.0601602
-0.0600543
-0.0599243
-0.0597595
0.000708027
0.000677914
0.000418728
-4.34491e-05
-0.000554658
-0.00102856
-0.00145964
-0.00190787
-0.00247395
-0.00327982
-0.0044625
-0.00616982
-0.00854104
-0.0116718
-0.0155763
-0.0201639
-0.0252382
-0.0305183
-0.0356738
-0.0403637
-0.0442736
-0.0471459
-0.0488023
-0.0491585
-0.0482442
-0.046205
-0.0433057
-0.0399317
-0.0365554
-0.0336919
-0.031833
-0.0313669
-0.0324952
-0.0351747
-0.0391047
-0.04378
-0.0486006
-0.0530057
-0.0565955
-0.0591828
-0.0608015
-0.0616079
-0.0617933
-0.0616079
-0.061271
-0.0609258
-0.0606458
-0.0604442
-0.0602679
-0.060091
0.0014632
0.00132917
0.000949788
0.000398167
-0.000167996
-0.00067452
-0.00114607
-0.00169547
-0.00249197
-0.00374171
-0.00567033
-0.0084919
-0.0123621
-0.017332
-0.0233218
-0.0301234
-0.0374276
-0.0448627
-0.0520355
-0.0585661
-0.0641172
-0.068418
-0.0712806
-0.0726067
-0.0723942
-0.0707269
-0.0678031
-0.063944
-0.0595574
-0.0551183
-0.0511296
-0.0480628
-0.0462835
-0.0459778
-0.0470992
-0.0493644
-0.0523107
-0.0554083
-0.0581903
-0.0603471
-0.0617583
-0.0624727
-0.0626544
-0.0624662
-0.0620797
-0.0616539
-0.0612881
-0.0610197
-0.0608144
-0.0606429
0.00253269
0.00226988
0.00176109
0.00110957
0.00045263
-0.000166614
-0.000836284
-0.00175203
-0.00318329
-0.00544017
-0.00882463
-0.0135659
-0.019761
-0.0273431
-0.0360875
-0.0456461
-0.0555944
-0.0654792
-0.0748585
-0.0833323
-0.0905654
-0.0963019
-0.10037
-0.102677
-0.10322
-0.102049
-0.0992893
-0.0951766
-0.0900126
-0.0841705
-0.0780828
-0.0722155
-0.0670262
-0.0629039
-0.0601009
-0.0586743
-0.0584652
-0.0591351
-0.0602566
-0.061428
-0.0623612
-0.0629171
-0.0630944
-0.0629813
-0.0626815
-0.0623065
-0.0619559
-0.0616871
-0.0614914
-0.0613462
0.0039229
0.00352396
0.00288492
0.00211122
0.00129596
0.000411426
-0.000727664
-0.00243046
-0.00508202
-0.00907641
-0.0147292
-0.0221966
-0.0314319
-0.0421905
-0.0540734
-0.0665871
-0.0792047
-0.0914162
-0.102766
-0.112878
-0.121464
-0.128325
-0.133335
-0.136435
-0.13764
-0.137012
-0.134622
-0.130617
-0.125179
-0.11854
-0.110987
-0.102871
-0.0946046
-0.0866438
-0.0794497
-0.0734224
-0.0688258
-0.0657238
-0.0639591
-0.0631995
-0.0630408
-0.0631222
-0.0631991
-0.0631648
-0.0630155
-0.0627925
-0.0625587
-0.0623678
-0.0622276
-0.0621269
0.00557909
0.00505093
0.00427666
0.00333827
0.00224016
0.00084414
-0.00116197
-0.00421412
-0.00878968
-0.015297
-0.0239658
-0.0347816
-0.0474831
-0.0616126
-0.0765927
-0.0918063
-0.106665
-0.120658
-0.133376
-0.144519
-0.153893
-0.161386
-0.166939
-0.170534
-0.172215
-0.17208
-0.170173
-0.166572
-0.161363
-0.154647
-0.146551
-0.137245
-0.126976
-0.116092
-0.105056
-0.0944394
-0.0848621
-0.076883
-0.0708638
-0.066855
-0.0645785
-0.0635364
-0.0631951
-0.0631399
-0.0631406
-0.063121
-0.0630763
-0.0630295
-0.0629845
-0.0629394
0.00735085
0.00670765
0.00578701
0.00460199
0.00302384
0.000773711
-0.00260047
-0.00763955
-0.0148431
-0.0245285
-0.0367317
-0.0511872
-0.0673792
-0.0846368
-0.102239
-0.119506
-0.135864
-0.150873
-0.164232
-0.17576
-0.185369
-0.19304
-0.198779
-0.202604
-0.204578
-0.204824
-0.203381
-0.200289
-0.195582
-0.189279
-0.181389
-0.171928
-0.160944
-0.148567
-0.135073
-0.120938
-0.106874
-0.0937705
-0.0825511
-0.0739226
-0.068135
-0.0648876
-0.0634788
-0.0631175
-0.0631927
-0.0633742
-0.0635544
-0.0636923
-0.0637674
-0.063782
0.00898018
0.00824095
0.00713844
0.00557382
0.00325
-0.000266024
-0.00554962
-0.0131831
-0.0235842
-0.0368658
-0.0527825
-0.0707739
-0.0900746
-0.109849
-0.12931
-0.147809
-0.164869
-0.180187
-0.193601
-0.205051
-0.214547
-0.222133
-0.227858
-0.23176
-0.233905
-0.234417
-0.233332
-0.230681
-0.226479
-0.220721
-0.213367
-0.204351
-0.193586
-0.181004
-0.166623
-0.150642
-0.133554
-0.116226
-0.0998683
-0.0858187
-0.0751481
-0.0682502
-0.0646808
-0.0634123
-0.0633399
-0.0636831
-0.0640818
-0.0644175
-0.0646225
-0.0646973
0.0101137
0.00928325
0.00793176
0.00581026
0.00243411
-0.00277302
-0.0104591
-0.021153
-0.0350783
-0.05205
-0.0714933
-0.0925597
-0.114291
-0.135778
-0.156274
-0.17525
-0.192391
-0.207551
-0.220703
-0.23188
-0.24115
-0.248588
-0.254256
-0.258195
-0.260456
-0.261152
-0.260306
-0.257952
-0.254108
-0.248776
-0.241919
-0.233462
-0.223278
-0.2112
-0.197061
-0.180771
-0.162452
-0.142618
-0.122322
-0.103141
-0.0868726
-0.0749305
-0.0677322
-0.064514
-0.0637978
-0.0641642
-0.0647597
-0.0652877
-0.0656247
-0.0657629
0.0103224
0.00938666
0.00769505
0.0048178
8.71425e-05
-0.00717972
-0.0176258
-0.0316222
-0.0491027
-0.0695313
-0.0920072
-0.115452
-0.138813
-0.161219
-0.182058
-0.200982
-0.217851
-0.232662
-0.245479
-0.256391
-0.265482
-0.272827
-0.278481
-0.282476
-0.284844
-0.285676
-0.284984
-0.282801
-0.279153
-0.274053
-0.267493
-0.259424
-0.249747
-0.238301
-0.224858
-0.209162
-0.191024
-0.170496
-0.14813
-0.12521
-0.103751
-0.0860471
-0.0737746
-0.0671587
-0.0648818
-0.0649266
-0.0656713
-0.0663835
-0.0668609
-0.0670743
0.00916174
0.00809527
0.00596179
0.0021415
-0.00419005
-0.0137649
-0.027133
-0.0444157
-0.0651979
-0.0885879
-0.113412
-0.138459
-0.162694
-0.18538
-0.2061
-0.224696
-0.24118
-0.255643
-0.268198
-0.278943
-0.287956
-0.295294
-0.300996
-0.305077
-0.307553
-0.3085
-0.307917
-0.305833
-0.302275
-0.297264
-0.290812
-0.282906
-0.273498
-0.262483
-0.249676
-0.234805
-0.217535
-0.19758
-0.174934
-0.150225
-0.125059
-0.101992
-0.0838218
-0.0722977
-0.0671107
-0.0661361
-0.0668674
-0.067772
-0.0684141
-0.068728
0.00625507
0.00502545
0.00235783
-0.00254729
-0.0106279
-0.0225987
-0.0388357
-0.0591482
-0.0827568
-0.108455
-0.134885
-0.160812
-0.185318
-0.207861
-0.228226
-0.246418
-0.262549
-0.276757
-0.289161
-0.299846
-0.308865
-0.316255
-0.322038
-0.326219
-0.328801
-0.329848
-0.329357
-0.327346
-0.323839
-0.318856
-0.312416
-0.304527
-0.295184
-0.284343
-0.271902
-0.257665
-0.24132
-0.222455
-0.200686
-0.17597
-0.149094
-0.122131
-0.0983095
-0.0808579
-0.0712252
-0.0681037
-0.0684206
-0.0695144
-0.0703573
-0.070814
0.00136323
-6.01821e-05
-0.00332565
-0.00938728
-0.0192446
-0.0335315
-0.0523904
-0.0752932
-0.101122
-0.12843
-0.155777
-0.182003
-0.206369
-0.228541
-0.248481
-0.266305
-0.282174
-0.29623
-0.308574
-0.319264
-0.328329
-0.33579
-0.341658
-0.345931
-0.348605
-0.349739
-0.34933
-0.347389
-0.343933
-0.338977
-0.332536
-0.324624
-0.315253
-0.304421
-0.2921
-0.278196
-0.262504
-0.244667
-0.224184
-0.200573
-0.173797
-0.144952
-0.116808
-0.0933769
-0.0780536
-0.0713542
-0.0704958
-0.0716762
-0.0727673
-0.073423
-0.00556681
-0.00720513
-0.0110916
-0.0183018
-0.0298441
-0.0462216
-0.0673119
-0.0922601
-0.119667
-0.147934
-0.175632
-0.201744
-0.225732
-0.247451
-0.266988
-0.28452
-0.300215
-0.314193
-0.326526
-0.337243
-0.346358
-0.353878
-0.359812
-0.364156
-0.366903
-0.368108
-0.367773
-0.365903
-0.362508
-0.357599
-0.351185
-0.343275
-0.33388
-0.323016
-0.310691
-0.296893
-0.281537
-0.264406
-0.24508
-0.222945
-0.197422
-0.168581
-0.138087
-0.109711
-0.0882297
-0.0765638
-0.0734116
-0.0743598
-0.0757581
-0.0766617
-0.0143874
-0.0162475
-0.020735
-0.0290124
-0.0420498
-0.0601893
-0.0830412
-0.109463
-0.137845
-0.166527
-0.194159
-0.219901
-0.243406
-0.264672
-0.283866
-0.301178
-0.316759
-0.330696
-0.343028
-0.353767
-0.362912
-0.370469
-0.376444
-0.380836
-0.383638
-0.384898
-0.384627
-0.382824
-0.379497
-0.374652
-0.368294
-0.360427
-0.351057
-0.340193
-0.327857
-0.314073
-0.298843
-0.282092
-0.26357
-0.242763
-0.218908
-0.191357
-0.160502
-0.128997
-0.101912
-0.0843772
-0.077628
-0.0777259
-0.0794533
-0.0806419
-0.0247707
-0.0268439
-0.0318747
-0.0410817
-0.0553598
-0.0748798
-0.0990068
-0.126365
-0.155214
-0.183896
-0.211189
-0.236428
-0.259426
-0.280281
-0.299191
-0.316337
-0.331834
-0.345737
-0.358059
-0.368798
-0.377951
-0.385521
-0.391517
-0.395939
-0.39878
-0.400081
-0.399864
-0.398121
-0.394859
-0.390084
-0.3838
-0.376007
-0.366705
-0.355899
-0.343602
-0.329844
-0.314666
-0.29809
-0.280034
-0.260187
-0.237886
-0.212182
-0.18247
-0.149885
-0.118654
-0.0951713
-0.0836511
-0.0820051
-0.0839587
-0.0854765
-0.0362551
-0.0385177
-0.0440075
-0.0539736
-0.0692092
-0.0897227
-0.114672
-0.14251
-0.171429
-0.199829
-0.226626
-0.251315
-0.273829
-0.294323
-0.312999
-0.330007
-0.345429
-0.359289
-0.371584
-0.382305
-0.391446
-0.399012
-0.405014
-0.409454
-0.412323
-0.413655
-0.413483
-0.41179
-0.408587
-0.403879
-0.397672
-0.389965
-0.380758
-0.370051
-0.35785
-0.344175
-0.32907
-0.312599
-0.294796
-0.275554
-0.254444
-0.230577
-0.202818
-0.170914
-0.137486
-0.108889
-0.0919091
-0.0874907
-0.0893646
-0.0912852
-0.0483048
-0.0507205
-0.0565698
-0.0671137
-0.0830273
-0.104178
-0.129561
-0.15752
-0.186232
-0.214179
-0.240414
-0.264561
-0.286635
-0.306815
-0.325289
-0.342174
-0.357518
-0.371323
-0.383575
-0.394263
-0.403382
-0.410934
-0.416933
-0.421383
-0.424273
-0.425628
-0.425491
-0.42384
-0.420688
-0.41604
-0.409904
-0.402283
-0.393178
-0.38259
-0.370521
-0.356982
-0.342006
-0.325658
-0.308027
-0.289154
-0.26886
-0.246509
-0.220895
-0.190841
-0.157166
-0.125004
-0.1026
-0.0944628
-0.0957639
-0.0981802
-0.0603695
-0.0628912
-0.0689963
-0.0799436
-0.0962814
-0.117765
-0.143278
-0.1711
-0.19943
-0.226843
-0.25251
-0.276154
-0.297838
-0.317747
-0.336042
-0.352809
-0.368069
-0.381809
-0.39401
-0.404658
-0.413749
-0.421284
-0.427276
-0.43173
-0.434636
-0.436006
-0.435899
-0.434283
-0.431172
-0.426575
-0.4205
-0.412956
-0.403947
-0.393479
-0.381554
-0.368182
-0.353383
-0.33721
-0.319759
-0.301148
-0.281394
-0.260169
-0.236493
-0.208817
-0.176457
-0.142615
-0.115576
-0.103113
-0.103265
-0.106218
-0.0719345
-0.0745113
-0.080767
-0.0919605
-0.108507
-0.130082
-0.155499
-0.183018
-0.210879
-0.237743
-0.262878
-0.286073
-0.307419
-0.327091
-0.345224
-0.361877
-0.377052
-0.390725
-0.402872
-0.413479
-0.422542
-0.43006
-0.436044
-0.440501
-0.44342
-0.444799
-0.444715
-0.443126
-0.440048
-0.435491
-0.429466
-0.421985
-0.41306
-0.4027
-0.390914
-0.377714
-0.363115
-0.347159
-0.32993
-0.311566
-0.292203
-0.271778
-0.249667
-0.224394
-0.194339
-0.16063
-0.130322
-0.113454
-0.111924
-0.115339
-0.0825808
-0.0851187
-0.0914412
-0.102742
-0.119322
-0.140807
-0.165977
-0.193101
-0.220469
-0.246815
-0.271477
-0.294287
-0.315345
-0.334812
-0.3528
-0.369346
-0.384439
-0.398048
-0.410145
-0.420717
-0.429756
-0.437262
-0.44324
-0.447699
-0.450627
-0.452013
-0.451946
-0.450377
-0.447322
-0.442793
-0.436805
-0.429372
-0.420511
-0.41024
-0.398576
-0.385534
-0.371135
-0.355415
-0.338442
-0.320349
-0.301323
-0.281484
-0.260563
-0.237422
-0.210094
-0.177963
-0.146027
-0.125243
-0.121643
-0.125302
-0.0919908
-0.0943361
-0.100659
-0.111961
-0.128434
-0.149698
-0.174528
-0.201222
-0.228117
-0.254005
-0.278268
-0.30076
-0.321578
-0.340871
-0.358732
-0.375184
-0.390204
-0.403758
-0.415817
-0.426363
-0.435388
-0.442887
-0.448864
-0.453326
-0.456264
-0.457656
-0.4576
-0.456044
-0.453001
-0.448488
-0.44252
-0.435115
-0.426297
-0.416091
-0.40452
-0.391611
-0.377391
-0.361897
-0.345191
-0.327394
-0.3087
-0.289334
-0.269307
-0.247912
-0.2233
-0.193679
-0.161722
-0.137951
-0.132079
-0.135683
-0.0999161
-0.101933
-0.108148
-0.119373
-0.135638
-0.156584
-0.181023
-0.207289
-0.233762
-0.259268
-0.283212
-0.305452
-0.32608
-0.345232
-0.362988
-0.379361
-0.394324
-0.407839
-0.419874
-0.430409
-0.439432
-0.446937
-0.452921
-0.457389
-0.460336
-0.46174
-0.461689
-0.46014
-0.4571
-0.452587
-0.44662
-0.439221
-0.430419
-0.420245
-0.408734
-0.395921
-0.381843
-0.366544
-0.350089
-0.332587
-0.314229
-0.295284
-0.275952
-0.255925
-0.233748
-0.207071
-0.176424
-0.150828
-0.142688
-0.145943
-0.10619
-0.107791
-0.113755
-0.124828
-0.140815
-0.161385
-0.185406
-0.211263
-0.237371
-0.262574
-0.286277
-0.30833
-0.328814
-0.347857
-0.365532
-0.381849
-0.396775
-0.410272
-0.422303
-0.432845
-0.441882
-0.449406
-0.455408
-0.459891
-0.46285
-0.464266
-0.464217
-0.462674
-0.459626
-0.455099
-0.449115
-0.441697
-0.432879
-0.422702
-0.411208
-0.398445
-0.38446
-0.369308
-0.35306
-0.335826
-0.31779
-0.299236
-0.280471
-0.261505
-0.241366
-0.217668
-0.189262
-0.163028
-0.152834
-0.155512
-0.110746
-0.111872
-0.117437
-0.128264
-0.143914
-0.164054
-0.187632
-0.213097
-0.238897
-0.263879
-0.287427
-0.309368
-0.329768
-0.348742
-0.366366
-0.38265
-0.397563
-0.411064
-0.423113
-0.433683
-0.442752
-0.450308
-0.456338
-0.460839
-0.463805
-0.465226
-0.465173
-0.463633
-0.46057
-0.456016
-0.449994
-0.442533
-0.43367
-0.423451
-0.411932
-0.399168
-0.385219
-0.37015
-0.354046
-0.337024
-0.319269
-0.301066
-0.282782
-0.264642
-0.246136
-0.225187
-0.199548
-0.173731
-0.161886
-0.163848
-0.11361
-0.114231
-0.119262
-0.12973
-0.144977
-0.164631
-0.187729
-0.212796
-0.238318
-0.263133
-0.286592
-0.308486
-0.328853
-0.347804
-0.365414
-0.3817
-0.396634
-0.410172
-0.422273
-0.432904
-0.442038
-0.449658
-0.455747
-0.460297
-0.463301
-0.464743
-0.464667
-0.463096
-0.459983
-0.455362
-0.449263
-0.441719
-0.432774
-0.422476
-0.410885
-0.398066
-0.384089
-0.369035
-0.352999
-0.336111
-0.318565
-0.300653
-0.282773
-0.265283
-0.248051
-0.229481
-0.206788
-0.182229
-0.169271
-0.17047
-0.114893
-0.11501
-0.119384
-0.129353
-0.144111
-0.16321
-0.185772
-0.210412
-0.235659
-0.260341
-0.283762
-0.305664
-0.326051
-0.345022
-0.362656
-0.378975
-0.393959
-0.407566
-0.419749
-0.430469
-0.439696
-0.447405
-0.453574
-0.458191
-0.461246
-0.462727
-0.462653
-0.461062
-0.457898
-0.453202
-0.447006
-0.439343
-0.430259
-0.419814
-0.408075
-0.395122
-0.38104
-0.365921
-0.349868
-0.333024
-0.315597
-0.29789
-0.280326
-0.263346
-0.247091
-0.23048
-0.210659
-0.187949
-0.174492
-0.17496
-0.114768
-0.114419
-0.118039
-0.127337
-0.141484
-0.159932
-0.181871
-0.206019
-0.230962
-0.255515
-0.27893
-0.300886
-0.321343
-0.340381
-0.358078
-0.374469
-0.389539
-0.403248
-0.415548
-0.426394
-0.435747
-0.443575
-0.449852
-0.454559
-0.457682
-0.459208
-0.459141
-0.45753
-0.454308
-0.449519
-0.443201
-0.43539
-0.426134
-0.415499
-0.403559
-0.390399
-0.376115
-0.360813
-0.344622
-0.327706
-0.310289
-0.292684
-0.275334
-0.258734
-0.243219
-0.228159
-0.210972
-0.190459
-0.177124
-0.176952
-0.113467
-0.112722
-0.115527
-0.123958
-0.137323
-0.154987
-0.176178
-0.199723
-0.224281
-0.248668
-0.272079
-0.294118
-0.314689
-0.333842
-0.351651
-0.368157
-0.383355
-0.397208
-0.409667
-0.42068
-0.430199
-0.438185
-0.444603
-0.449428
-0.45264
-0.454225
-0.454171
-0.452539
-0.449254
-0.444357
-0.437893
-0.429899
-0.420427
-0.409546
-0.397337
-0.383895
-0.369323
-0.353742
-0.337295
-0.320164
-0.302603
-0.284963
-0.267709
-0.251361
-0.236386
-0.22251
-0.207626
-0.189452
-0.176798
-0.176123
-0.111252
-0.110209
-0.112185
-0.119552
-0.13192
-0.148618
-0.168889
-0.191666
-0.2157
-0.239828
-0.263194
-0.28532
-0.306039
-0.325356
-0.343329
-0.360003
-0.37538
-0.389427
-0.402093
-0.41332
-0.423051
-0.431237
-0.437836
-0.442814
-0.446142
-0.447804
-0.447782
-0.446128
-0.442778
-0.437762
-0.431129
-0.422919
-0.413187
-0.402004
-0.389457
-0.375648
-0.360689
-0.344714
-0.327883
-0.310403
-0.292555
-0.27472
-0.257404
-0.241165
-0.226549
-0.213532
-0.200584
-0.184721
-0.173191
-0.172174
-0.108402
-0.107177
-0.108358
-0.114495
-0.125616
-0.141115
-0.160243
-0.182029
-0.205336
-0.229048
-0.252274
-0.274455
-0.295337
-0.314864
-0.333062
-0.349967
-0.365585
-0.379885
-0.392816
-0.404312
-0.414309
-0.422746
-0.429571
-0.434741
-0.438221
-0.439987
-0.440018
-0.438349
-0.434937
-0.429795
-0.422973
-0.414517
-0.40448
-0.392938
-0.379982
-0.365716
-0.350266
-0.333774
-0.316421
-0.298439
-0.280142
-0.261953
-0.244421
-0.22814
-0.213706
-0.201249
-0.189853
-0.176147
-0.166018
-0.164825
-0.105185
-0.10389
-0.104368
-0.10917
-0.118791
-0.132809
-0.150518
-0.171032
-0.19334
-0.216405
-0.239332
-0.261487
-0.282521
-0.302293
-0.320781
-0.337995
-0.353931
-0.368561
-0.381827
-0.39366
-0.403987
-0.412734
-0.419841
-0.425252
-0.428925
-0.430828
-0.430937
-0.429269
-0.425802
-0.420531
-0.413505
-0.404773
-0.394391
-0.382433
-0.368993
-0.354182
-0.33813
-0.320994
-0.302974
-0.284331
-0.265416
-0.246699
-0.228781
-0.212307
-0.197913
-0.185732
-0.175495
-0.163688
-0.155031
-0.153804
-0.101836
-0.100569
-0.100476
-0.103932
-0.11184
-0.124068
-0.140025
-0.158927
-0.179897
-0.20201
-0.224402
-0.246388
-0.267521
-0.287559
-0.306403
-0.324015
-0.340369
-0.355423
-0.369117
-0.381372
-0.392106
-0.401236
-0.408688
-0.414399
-0.418314
-0.420395
-0.420613
-0.418971
-0.41546
-0.410061
-0.40282
-0.393789
-0.383022
-0.370594
-0.356598
-0.341149
-0.324384
-0.306475
-0.28764
-0.268174
-0.248471
-0.229053
-0.210578
-0.193743
-0.179241
-0.16713
-0.157637
-0.147386
-0.140042
-0.138853
-0.0985425
-0.0973712
-0.0968699
-0.0990727
-0.10514
-0.115279
-0.129108
-0.145997
-0.165224
-0.186006
-0.20755
-0.229153
-0.250277
-0.27057
-0.289828
-0.307938
-0.324828
-0.34043
-0.354667
-0.367452
-0.37869
-0.388291
-0.396167
-0.402245
-0.406463
-0.408772
-0.409138
-0.407551
-0.404015
-0.398496
-0.391035
-0.381685
-0.370498
-0.357548
-0.342926
-0.32675
-0.309164
-0.290354
-0.270562
-0.250117
-0.229462
-0.209176
-0.189978
-0.17262
-0.157828
-0.14565
-0.136479
-0.127364
-0.120951
-0.119742
-0.0954333
-0.0943981
-0.0936579
-0.0947938
-0.0990123
-0.106819
-0.118131
-0.132553
-0.14957
-0.168572
-0.18888
-0.20981
-0.230755
-0.251247
-0.270956
-0.289665
-0.307225
-0.323522
-0.338448
-0.351897
-0.363763
-0.373942
-0.382338
-0.388867
-0.393458
-0.396055
-0.396618
-0.395125
-0.391589
-0.385963
-0.378283
-0.368599
-0.356964
-0.343444
-0.328133
-0.311149
-0.292643
-0.272815
-0.251936
-0.230372
-0.208617
-0.187314
-0.167241
-0.149199
-0.133942
-0.121525
-0.112287
-0.103807
-0.0977468
-0.0962359
-0.0925863
-0.0917056
-0.09088
-0.0911949
-0.0936839
-0.0990171
-0.107444
-0.118917
-0.133204
-0.149923
-0.168546
-0.188445
-0.208974
-0.229553
-0.249714
-0.269108
-0.287479
-0.304636
-0.320422
-0.3347
-0.347343
-0.358233
-0.367265
-0.374345
-0.379395
-0.382352
-0.38317
-0.381819
-0.378313
-0.372602
-0.364712
-0.354689
-0.342584
-0.32846
-0.312409
-0.294549
-0.275042
-0.254103
-0.232032
-0.209235
-0.186263
-0.163817
-0.142736
-0.123859
-0.107957
-0.0950444
-0.085415
-0.0769412
-0.070481
-0.067993
-0.0900339
-0.0893161
-0.0885278
-0.0882804
-0.0892556
-0.0920963
-0.0973482
-0.105397
-0.11641
-0.130308
-0.146756
-0.165219
-0.185037
-0.205535
-0.226102
-0.246235
-0.265543
-0.283729
-0.300562
-0.315855
-0.329449
-0.341209
-0.351015
-0.358765
-0.364375
-0.367777
-0.368921
-0.367771
-0.364333
-0.35857
-0.350488
-0.340132
-0.32755
-0.312804
-0.295983
-0.277208
-0.25665
-0.234544
-0.211215
-0.187116
-0.162847
-0.139168
-0.116965
-0.0971042
-0.080348
-0.0666308
-0.0562942
-0.0470373
-0.0393556
-0.0346132
-0.0877676
-0.0872254
-0.0865648
-0.085979
-0.0856889
-0.0861245
-0.0880227
-0.0922427
-0.0994645
-0.110005
-0.123786
-0.140392
-0.159174
-0.179377
-0.200251
-0.221131
-0.241468
-0.260833
-0.278894
-0.295394
-0.310128
-0.322931
-0.333667
-0.342223
-0.348511
-0.352456
-0.354008
-0.353128
-0.349813
-0.344041
-0.335802
-0.325136
-0.312093
-0.296734
-0.279146
-0.259457
-0.237847
-0.214569
-0.189978
-0.164564
-0.138971
-0.114002
-0.0905736
-0.0695554
-0.0516837
-0.0368137
-0.0253941
-0.0144242
-0.00500918
0.00396213
-0.0857304
-0.0853941
-0.0849309
-0.0841585
-0.0828041
-0.0809715
-0.0794658
-0.0795899
-0.0826052
-0.0893245
-0.0999913
-0.114347
-0.131773
-0.151448
-0.172491
-0.194074
-0.21548
-0.23613
-0.255569
-0.273449
-0.289502
-0.303523
-0.31535
-0.324858
-0.331949
-0.336549
-0.338603
-0.338074
-0.33495
-0.329228
-0.320886
-0.30996
-0.296503
-0.280579
-0.262277
-0.241731
-0.219132
-0.194752
-0.168968
-0.142297
-0.11541
-0.089124
-0.0643491
-0.0419303
-0.0225566
-0.00604142
0.00704994
0.0207982
0.0317157
0.0475441
-0.0838015
-0.0837259
-0.0835184
-0.0826149
-0.0802827
-0.0762969
-0.0714503
-0.0674062
-0.0660007
-0.0685979
-0.0758267
-0.0876273
-0.10343
-0.122359
-0.143415
-0.165613
-0.18807
-0.210048
-0.230957
-0.250341
-0.267857
-0.283244
-0.296308
-0.306904
-0.314925
-0.320291
-0.322949
-0.322862
-0.320015
-0.314419
-0.306053
-0.294951
-0.281168
-0.264776
-0.245871
-0.224596
-0.201152
-0.175823
-0.149002
-0.12121
-0.0931121
-0.0654953
-0.0392135
-0.015032
0.00644906
0.0254735
0.0414455
0.0594275
0.0717606
0.0982168
-0.0817862
-0.0820382
-0.0821194
-0.0810298
-0.0776639
-0.0715769
-0.0635432
-0.0554895
-0.0497385
-0.0481837
-0.0518664
-0.0609621
-0.0749765
-0.0929976
-0.113921
-0.136619
-0.160054
-0.183332
-0.205727
-0.226669
-0.245726
-0.262575
-0.27698
-0.28877
-0.297825
-0.30406
-0.30742
-0.307871
-0.3054
-0.300022
-0.291738
-0.280576
-0.266602
-0.249895
-0.230564
-0.208761
-0.184697
-0.15866
-0.131037
-0.102323
-0.0731304
-0.0441604
-0.0161456
0.0102969
0.0347326
0.0575922
0.0784842
0.103255
0.120252
0.163293
-0.079471
-0.0800786
-0.0804458
-0.0790057
-0.0744068
-0.0661968
-0.0552179
-0.043558
-0.0338771
-0.0284922
-0.0288233
-0.035293
-0.0475094
-0.0645507
-0.0852323
-0.108308
-0.132603
-0.157084
-0.180895
-0.203357
-0.223946
-0.242274
-0.258056
-0.271092
-0.281243
-0.288417
-0.292559
-0.293638
-0.291644
-0.286593
-0.278512
-0.267437
-0.253444
-0.236628
-0.217109
-0.195044
-0.170648
-0.1442
-0.116051
-0.0866353
-0.0564561
-0.0260608
0.00401609
0.0333879
0.0618737
0.0902234
0.118443
0.153623
0.1834
0.248084
-0.0769598
-0.0778087
-0.0783068
-0.0762616
-0.0702122
-0.0597843
-0.0461165
-0.0314598
-0.0185826
-0.0100465
-0.00755728
-0.011752
-0.0223527
-0.0384593
-0.0588457
-0.0821825
-0.107186
-0.132711
-0.157789
-0.18164
-0.203658
-0.223389
-0.240501
-0.25476
-0.266007
-0.274143
-0.279108
-0.280878
-0.279451
-0.274846
-0.2671
-0.256264
-0.242434
-0.225727
-0.206272
-0.184226
-0.159791
-0.133216
-0.104793
-0.0748518
-0.043736
-0.0117621
0.0208414
0.054068
0.0881622
0.124315
0.162841
0.212496
0.259996
0.338562
-0.075538
-0.0762362
-0.0763645
-0.0731403
-0.0652603
-0.052608
-0.0365283
-0.0195313
-0.00439418
0.00638123
0.0108967
0.00837065
-0.000996093
-0.0163422
-0.0364436
-0.0599334
-0.0854627
-0.111805
-0.13791
-0.162918
-0.186155
-0.207107
-0.225399
-0.240765
-0.253029
-0.262078
-0.267852
-0.270327
-0.269513
-0.265441
-0.258166
-0.247732
-0.234225
-0.21779
-0.198578
-0.176746
-0.15247
-0.12595
-0.0973998
-0.0670186
-0.0349477
-0.00119442
0.0344726
0.0727199
0.114715
0.162787
0.218005
0.289128
0.349492
0.424461
-0.0797112
-0.079012
-0.0774035
-0.071794
-0.0612469
-0.0460078
-0.0276814
-0.00886935
0.00764793
0.0196585
0.0253972
0.0238628
0.0152426
0.000375485
-0.019539
-0.0431322
-0.0690273
-0.095954
-0.12281
-0.148683
-0.172846
-0.194743
-0.213965
-0.230221
-0.243314
-0.253126
-0.259591
-0.262688
-0.262429
-0.258856
-0.25203
-0.242041
-0.228968
-0.21289
-0.193967
-0.172376
-0.14828
-0.121834
-0.093168
-0.0623456
-0.0292823
0.00638664
0.0455101
0.0898022
0.142182
0.207871
0.291664
0.403582
0.495843
0.603422
-0.103144
-0.0953238
-0.0868783
-0.07609
-0.0617263
-0.0433941
-0.0227379
-0.00233638
0.0153623
0.0281472
0.0343282
0.0332181
0.025008
0.0104882
-0.00918749
-0.0326846
-0.058642
-0.0857852
-0.112993
-0.139323
-0.16402
-0.186495
-0.206311
-0.223157
-0.236822
-0.247172
-0.254139
-0.257699
-0.257864
-0.254677
-0.248204
-0.23853
-0.225753
-0.209984
-0.191347
-0.169981
-0.146037
-0.119638
-0.0908491
-0.0596072
-0.0256103
0.011885
0.0543937
0.104836
0.168341
0.254401
0.375692
0.555737
0.767698
1.10785
-0.189979
-0.112224
-0.0806368
-0.0714081
-0.0581299
-0.0387553
-0.0170562
0.00395284
0.0217622
0.0341962
0.0398495
0.0382386
0.0296357
0.0148602
-0.00494132
-0.0284708
-0.0544129
-0.0815322
-0.108734
-0.135092
-0.159852
-0.182428
-0.202376
-0.219377
-0.233212
-0.243745
-0.250899
-0.254649
-0.255005
-0.252008
-0.245723
-0.236233
-0.22364
-0.208051
-0.189588
-0.168383
-0.14457
-0.118244
-0.0894126
-0.0579158
-0.0232875
0.0154961
0.0604273
0.115248
0.186518
0.28658
0.435324
0.680384
1.07938
1.82854
)
;

boundaryField
{
    movingWall
    {
        type            zeroGradient;
    }
    fixedWalls
    {
        type            zeroGradient;
    }
    frontAndBack
    {
        type            empty;
    }
}


// ************************************************************************* //
