/*--------------------------------*- C++ -*----------------------------------*\
  =========                 |
  \\      /  F ield         | OpenFOAM: The Open Source CFD Toolbox
   \\    /   O peration     | Website:  https://openfoam.org
    \\  /    A nd           | Version:  7
     \\/     M anipulation  |
\*---------------------------------------------------------------------------*/
FoamFile
{
    version     2.0;
    format      ascii;
    class       surfaceScalarField;
    location    "1500";
    object      phi;
}
// * * * * * * * * * * * * * * * * * * * * * * * * * * * * * * * * * * * * * //

dimensions      [0 3 -1 0 0 0 0];

internalField   nonuniform List<scalar> 
4900
(
1.69708e-06
-1.70652e-06
6.22288e-06
-4.52587e-06
1.1716e-05
-5.49315e-06
1.65022e-05
-4.78615e-06
1.97496e-05
-3.24745e-06
2.13887e-05
-1.63909e-06
2.17671e-05
-3.78492e-07
2.12616e-05
5.05544e-07
2.00151e-05
1.24638e-06
1.78639e-05
2.15121e-06
1.44146e-05
3.44923e-06
9.18045e-06
5.23412e-06
1.67028e-06
7.51012e-06
-8.56787e-06
1.02381e-05
-2.18834e-05
1.33155e-05
-3.8439e-05
1.65556e-05
-5.81389e-05
1.96999e-05
-8.05474e-05
2.24085e-05
-0.000104826
2.42785e-05
-0.000129717
2.48915e-05
-0.000153594
2.38768e-05
-0.00017457
2.09756e-05
-0.000190662
1.60926e-05
-0.000199997
9.33488e-06
-0.000201054
1.05684e-06
-0.000192892
-8.16187e-06
-0.000175268
-1.76244e-05
-0.000148703
-2.65651e-05
-0.000114491
-3.42113e-05
-7.46601e-05
-3.98314e-05
-3.18606e-05
-4.27995e-05
1.07911e-05
-4.26518e-05
5.00386e-05
-3.92475e-05
8.30311e-05
-3.29924e-05
0.000107593
-2.4562e-05
0.000122461
-1.48679e-05
0.000127521
-5.06048e-06
0.000123857
3.66446e-06
0.000113466
1.03914e-05
9.87392e-05
1.47263e-05
8.2021e-05
1.67182e-05
6.52481e-05
1.67729e-05
4.97658e-05
1.54823e-05
3.63079e-05
1.34579e-05
2.51015e-05
1.12064e-05
1.60386e-05
9.06284e-06
8.89249e-06
7.14612e-06
3.59378e-06
5.2987e-06
5.05007e-07
3.08876e-06
5.05004e-07
4.47327e-06
-6.17988e-06
1.38472e-05
-1.38998e-05
2.43095e-05
-1.59556e-05
3.2898e-05
-1.33746e-05
3.80007e-05
-8.35015e-06
3.92271e-05
-2.8656e-06
3.68592e-05
1.98936e-06
3.12037e-05
6.16094e-06
2.21526e-05
1.02974e-05
9.07796e-06
1.52257e-05
-9.0173e-06
2.15444e-05
-3.32339e-05
2.94506e-05
-6.44714e-05
3.87475e-05
-0.000103169
4.8936e-05
-0.000149098
5.92441e-05
-0.000201197
6.86547e-05
-0.00025752
7.60227e-05
-0.000315356
8.02449e-05
-0.000371509
8.04311e-05
-0.000422642
7.60248e-05
-0.000465619
6.68529e-05
-0.000497759
5.31155e-05
-0.000517009
3.5343e-05
-0.000522029
1.43547e-05
-0.000512273
-8.69913e-06
-0.000487833
-3.26013e-05
-0.000449348
-5.61101e-05
-0.000398021
-7.78922e-05
-0.000335681
-9.65511e-05
-0.000264802
-0.000110711
-0.000188474
-0.000119127
-0.000110274
-0.000120852
-3.40841e-05
-0.000115438
3.60238e-05
-0.0001031
9.63586e-05
-8.48969e-05
0.000144105
-6.26147e-05
0.000177342
-3.82969e-05
0.000195279
-1.42726e-05
0.000198511
7.15931e-06
0.000189136
2.41008e-05
0.000170304
3.55503e-05
0.000145606
4.14714e-05
0.00011845
4.2638e-05
9.16024e-05
4.03054e-05
6.69296e-05
3.58791e-05
4.54184e-05
3.0574e-05
2.74587e-05
2.51058e-05
1.33346e-05
1.94228e-05
3.75524e-06
1.2668e-05
4.26024e-06
5.98677e-06
-1.21667e-05
1.73362e-05
-2.52493e-05
2.88004e-05
-2.74199e-05
3.6821e-05
-2.13953e-05
3.95363e-05
-1.10654e-05
3.63573e-05
3.13267e-07
2.72212e-05
1.11254e-05
1.19207e-05
2.14614e-05
-1.0309e-05
3.2527e-05
-4.07448e-05
4.56614e-05
-8.07463e-05
6.15457e-05
-0.000131237
7.99408e-05
-0.000192281
9.97919e-05
-0.000262775
0.00011943
-0.000340374
0.000136842
-0.000421719
0.00015
-0.000502896
0.000157199
-0.00057995
0.000157299
-0.000649338
0.000149819
-0.000708195
0.000134882
-0.000754437
0.000113095
-0.000786708
8.53867e-05
-0.000804248
5.28823e-05
-0.000806702
1.68089e-05
-0.000793933
-2.14682e-05
-0.000765958
-6.05763e-05
-0.000723093
-9.89755e-05
-0.00066607
-0.000134915
-0.000596123
-0.000166497
-0.0005151
-0.000191734
-0.000425526
-0.000208701
-0.000330599
-0.000215779
-0.000234101
-0.000211936
-0.000140167
-0.000197034
-5.303e-05
-0.000172034
2.33479e-05
-0.000138993
8.59954e-05
-0.000100944
0.000133121
-6.13982e-05
0.000163758
-2.34779e-05
0.00017805
9.80858e-06
0.000177536
3.60647e-05
0.000165018
5.39892e-05
0.000144045
6.36108e-05
0.000118299
6.60514e-05
9.10401e-05
6.3138e-05
6.47423e-05
5.68718e-05
4.10642e-05
4.87839e-05
2.12071e-05
3.92798e-05
6.60693e-06
2.72682e-05
1.08672e-05
6.5084e-06
-1.86752e-05
1.75965e-05
-3.63375e-05
2.69514e-05
-3.67749e-05
3.07585e-05
-2.52025e-05
2.72117e-05
-7.51865e-06
1.56177e-05
1.19072e-05
-4.55888e-06
3.13019e-05
-3.43319e-05
5.12343e-05
-7.52242e-05
7.34192e-05
-0.000128713
9.91498e-05
-0.000195527
0.000128361
-0.000275089
0.000159502
-0.00036527
0.000189974
-0.000462585
0.000216745
-0.00056272
0.000236977
-0.000661227
0.000248507
-0.000754129
0.000250101
-0.000838289
0.000241459
-0.000911496
0.000223026
-0.000972344
0.00019573
-0.00102
0.000160755
-0.00105399
0.000119372
-0.00107395
7.28434e-05
-0.00107956
2.2416e-05
-0.00107042
-3.06029e-05
-0.00104625
-8.47494e-05
-0.00100688
-0.00013834
-0.000952387
-0.000189413
-0.000883171
-0.000235714
-0.000800176
-0.000274729
-0.000705038
-0.00030384
-0.000600238
-0.000320578
-0.000489193
-0.00032298
-0.000376183
-0.000310045
-0.000266041
-0.000282176
-0.00016362
-0.000241414
-7.32347e-05
-0.00019133
1.84187e-06
-0.000136475
6.0036e-05
-8.1672e-05
0.000101044
-3.12e-05
0.000125123
1.19866e-05
0.000133561
4.55506e-05
0.000128866
6.83057e-05
0.000114334
8.05834e-05
9.35479e-05
8.39242e-05
6.98696e-05
8.05501e-05
4.61156e-05
7.25379e-05
2.46359e-05
6.07594e-05
7.92814e-06
4.39759e-05
1.87953e-05
6.20543e-06
-2.48806e-05
1.48962e-05
-4.50283e-05
1.92076e-05
-4.10865e-05
1.5479e-05
-2.14739e-05
2.16325e-06
5.79699e-06
-2.16235e-05
3.56939e-05
-5.70579e-05
6.67362e-05
-0.000105866
0.000100042
-0.000169673
0.000137225
-0.00024904
0.000178517
-0.000342784
0.000222105
-0.000447888
0.000264606
-0.000559972
0.000302057
-0.000674092
0.000330865
-0.000785572
0.000348458
-0.000890592
0.000353527
-0.000986423
0.000345932
-0.00107135
0.000326386
-0.00114441
0.000296087
-0.00120512
0.000256438
-0.00125324
0.000208872
-0.00128861
0.000154749
-0.0013111
9.53277e-05
-0.00132052
3.1842e-05
-0.00131664
-3.44901e-05
-0.00129908
-0.000102311
-0.00126734
-0.000170077
-0.00122086
-0.000235896
-0.00115911
-0.000297458
-0.00108183
-0.000352015
-0.000989223
-0.000396443
-0.0008824
-0.000427401
-0.000763664
-0.000441716
-0.00063672
-0.000436989
-0.000506626
-0.00041227
-0.000379407
-0.000368633
-0.000261267
-0.00030947
-0.000157508
-0.000240234
-7.1653e-05
-0.000167527
-5.14142e-06
-9.77116e-05
4.25693e-05
-3.57242e-05
7.27241e-05
1.53958e-05
8.69264e-05
5.41034e-05
8.77041e-05
7.98057e-05
7.82663e-05
9.33619e-05
6.21252e-05
9.66912e-05
4.27413e-05
9.19218e-05
2.34088e-05
8.0092e-05
7.60336e-06
5.97813e-05
2.63987e-05
4.89897e-06
-2.97797e-05
8.88253e-06
-4.9012e-05
5.2939e-06
-3.74979e-05
-8.91698e-06
-7.2631e-06
-3.50946e-05
3.19745e-05
-7.44014e-05
7.50007e-05
-0.000128556
0.000120891
-0.000199307
0.000170793
-0.000287212
0.000225131
-0.00039075
0.000282054
-0.000506273
0.000337629
-0.000628723
0.000387055
-0.000752648
0.000425983
-0.000873144
0.000451361
-0.000986405
0.000461719
-0.00108987
0.000456994
-0.00118206
0.00043812
-0.00126226
0.000406587
-0.00133027
0.000364101
-0.00138623
0.000312397
-0.00143046
0.000253103
-0.00146337
0.000187657
-0.00148537
0.000117324
-0.00149679
4.32667e-05
-0.00149775
-3.3532e-05
-0.00148798
-0.000112082
-0.00146685
-0.000191206
-0.00143335
-0.000269401
-0.00138609
-0.000344718
-0.00132348
-0.000414618
-0.00124408
-0.000475847
-0.001147
-0.000524484
-0.00103245
-0.00055626
-0.000902308
-0.000567134
-0.000760517
-0.000554061
-0.000613215
-0.000515935
-0.000468195
-0.00045449
-0.00033371
-0.000374719
-0.000216822
-0.000284414
-0.000121837
-0.000192697
-4.97117e-05
-0.00010785
1.19077e-06
-3.55066e-05
3.3472e-05
2.18222e-05
4.96833e-05
6.35943e-05
5.27839e-05
9.02613e-05
4.6188e-05
0.000103287
3.35983e-05
0.000104511
1.88758e-05
9.48145e-05
6.11475e-06
7.25423e-05
3.25134e-05
2.27581e-06
-3.20555e-05
-9.1045e-07
-4.58258e-05
-1.49978e-05
-2.34106e-05
-4.21788e-05
1.99178e-05
-8.36364e-05
7.3432e-05
-0.000140805
0.000132169
-0.000215384
0.00019547
-0.000308054
0.000263463
-0.000417279
0.000334356
-0.000539115
0.00040389
-0.000668016
0.00046653
-0.00079805
0.000517089
-0.000923945
0.000551878
-0.00104168
0.000569097
-0.0011486
0.000568639
-0.00124323
0.000551622
-0.00132498
0.000519875
-0.00139394
0.000475541
-0.00145066
0.000420824
-0.00149608
0.00035781
-0.00153129
0.000288314
-0.00155745
0.000213817
-0.00157563
0.00013551
-0.00158668
5.43098e-05
-0.00159103
-2.91749e-05
-0.0015887
-0.000114418
-0.00157917
-0.000200737
-0.00156128
-0.000287287
-0.00153318
-0.000372815
-0.00149241
-0.000455386
-0.00143613
-0.000532133
-0.00136142
-0.000599192
-0.00126589
-0.000651788
-0.00114849
-0.000684539
-0.00101041
-0.000692138
-0.000855853
-0.000670495
-0.00069222
-0.000618124
-0.00052955
-0.000537388
-0.000378862
-0.000435103
-0.000249638
-0.00032192
-0.000147355
-0.000210133
-7.24695e-05
-0.000110392
-2.16773e-05
-2.897e-05
9.34363e-06
3.25733e-05
2.44513e-05
7.51537e-05
2.74294e-05
0.000100309
2.22353e-05
0.000109705
1.30492e-05
0.000104001
4.21384e-06
8.13776e-05
3.67272e-05
-1.91515e-06
-3.01404e-05
-1.46479e-05
-3.30932e-05
-4.13142e-05
3.25555e-06
-8.32054e-05
6.18089e-05
-0.000141333
0.00013156
-0.000217097
0.000207932
-0.000311279
0.000289652
-0.000422599
0.000374783
-0.000547166
0.000458923
-0.000679177
0.000535901
-0.000812244
0.000599597
-0.000940606
0.00064545
-0.00105981
0.000671086
-0.00116691
0.000676189
-0.00126026
0.00066199
-0.00133933
0.000630693
-0.00140445
0.000584992
-0.00145662
0.000527712
-0.00149734
0.000461548
-0.00152838
0.000388851
-0.00155155
0.000311483
-0.00156856
0.000230826
-0.00158088
0.000147827
-0.00158958
6.30129e-05
-0.00159537
-2.33818e-05
-0.00159855
-0.000111242
-0.00159887
-0.000200417
-0.0015954
-0.000290756
-0.00158645
-0.000381768
-0.00156948
-0.000472348
-0.00154109
-0.000560531
-0.00149702
-0.000643258
-0.00143269
-0.000716115
-0.00134397
-0.000773258
-0.00122829
-0.000807826
-0.00108589
-0.00081289
-0.000921073
-0.000782941
-0.000742698
-0.000715762
-0.000563524
-0.000614278
-0.000397922
-0.000487522
-0.000258283
-0.000349772
-0.000151375
-0.0002173
-7.68393e-05
-0.000103506
-2.92102e-05
-1.50559e-05
-2.0593e-06
4.80027e-05
9.98385e-06
8.82658e-05
1.17366e-05
0.000107953
7.79465e-06
0.000107942
2.60192e-06
8.65704e-05
3.93291e-05
-7.74176e-06
-2.23987e-05
-3.18913e-05
-8.9437e-06
-7.24856e-05
4.38498e-05
-0.000129783
0.000119106
-0.000204606
0.000206383
-0.000297684
0.000301011
-0.000408128
0.000400095
-0.000532429
0.000499085
-0.000664817
0.00059131
-0.000798559
0.000669643
-0.000927342
0.00072838
-0.00104615
0.000764256
-0.00115156
0.000776495
-0.00124168
0.000766313
-0.00131596
0.000736271
-0.00137495
0.000689686
-0.00142009
0.000630125
-0.00145339
0.000561018
-0.0014772
0.000485353
-0.00149382
0.000405474
-0.00150539
0.000323045
-0.0015137
0.000239136
-0.00152016
0.000154296
-0.00152582
6.86711e-05
-0.00153141
-1.77893e-05
-0.00153738
-0.000105277
-0.00154375
-0.000194045
-0.00155012
-0.000284385
-0.00155551
-0.000376381
-0.00155809
-0.00046977
-0.00155488
-0.000563738
-0.00154162
-0.000656519
-0.00151284
-0.000744895
-0.00146229
-0.000823808
-0.00138386
-0.00088626
-0.00127308
-0.00092367
-0.00112904
-0.000926977
-0.000956114
-0.000888688
-0.000764816
-0.000805576
-0.000571028
-0.00068131
-0.000392971
-0.000527829
-0.000246179
-0.000364093
-0.00013839
-0.000211295
-6.7696e-05
-8.57494e-05
-2.58891e-05
6.19577e-06
-4.30583e-06
6.66825e-05
3.87417e-06
9.97727e-05
4.28432e-06
0.000107532
1.71535e-06
8.91393e-05
4.10445e-05
-1.49318e-05
-7.46685e-06
-5.16593e-05
2.77837e-05
-0.000106479
9.86697e-05
-0.000178718
0.000191345
-0.000268726
0.000296391
-0.000375963
0.000408248
-0.000497564
0.000521696
-0.000628133
0.000629653
-0.000760815
0.000723993
-0.000888792
0.00079762
-0.0010064
0.000845987
-0.00110964
0.000867499
-0.00119627
0.000863121
-0.00126563
0.00083567
-0.00131845
0.000789096
-0.00135657
0.000727801
-0.00138251
0.000656067
-0.00139911
0.000577615
-0.00140909
0.000495336
-0.00141483
0.000411216
-0.00141824
0.000326452
-0.00142073
0.000241628
-0.0014233
0.000156871
-0.00142668
7.20465e-05
-0.00143139
-1.30815e-05
-0.00143781
-9.88575e-05
-0.00144618
-0.000185669
-0.00145666
-0.000273911
-0.00146909
-0.000363951
-0.00148273
-0.000456123
-0.00149592
-0.000550554
-0.00150564
-0.000646801
-0.00150718
-0.00074335
-0.00149398
-0.000837012
-0.001458
-0.000922238
-0.00139098
-0.000990693
-0.00128638
-0.00103158
-0.00114192
-0.00103314
-0.000962072
-0.000985427
-0.000759336
-0.000884046
-0.000553293
-0.000733872
-0.000366418
-0.000550968
-0.000217187
-0.000360525
-0.000113332
-0.000189605
-5.01806e-05
-5.69554e-05
-1.63323e-05
3.28341e-05
-1.28585e-06
8.47262e-05
2.75041e-06
0.000103496
1.6489e-06
9.02408e-05
4.26934e-05
-2.29867e-05
1.55198e-05
-7.24424e-05
7.72393e-05
-0.000140703
0.00016693
-0.000226256
0.000276898
-0.000328579
0.000398713
-0.000445546
0.000525215
-0.000572492
0.000648642
-0.000702783
0.000759944
-0.000829261
0.000850471
-0.00094562
0.000913978
-0.0010472
0.000947564
-0.00113125
0.000951549
-0.00119691
0.000928779
-0.00124499
0.000883754
-0.00127765
0.000821755
-0.00129789
0.000748038
-0.001309
0.000667186
-0.00131411
0.000582725
-0.00131579
0.000497013
-0.00131595
0.000411375
-0.00131587
0.000326376
-0.00131633
0.000242084
-0.00131776
0.000158297
-0.00132043
7.47191e-05
-0.00132455
-8.96366e-06
-0.00133033
-9.30719e-05
-0.0013381
-0.000177902
-0.00134828
-0.000263734
-0.00136128
-0.000350946
-0.00137736
-0.000440043
-0.00139632
-0.000531593
-0.00141705
-0.000626079
-0.00143681
-0.000723584
-0.00145067
-0.000823152
-0.00145112
-0.000921788
-0.00142843
-0.00101339
-0.00137198
-0.00108803
-0.00127288
-0.00113223
-0.00112746
-0.00113085
-0.000940585
-0.00107092
-0.000727431
-0.000947026
-0.000512
-0.000766399
-0.000321269
-0.000551257
-0.00017584
-0.000335034
-8.16106e-05
-0.000151185
-2.96125e-05
-1.9164e-05
-5.39098e-06
6.05047e-05
2.49441e-06
9.56106e-05
2.18171e-06
9.05535e-05
4.48751e-05
-3.11644e-05
4.66841e-05
-9.24282e-05
0.000138503
-0.000172422
0.000246924
-0.000268675
0.000373151
-0.000379531
0.000509569
-0.000501307
0.000646991
-0.000628011
0.000775346
-0.000752467
0.000884399
-0.000867831
0.000965836
-0.000968717
0.00101486
-0.00105174
0.00103059
-0.00111564
0.00101545
-0.00116113
0.000974272
-0.00119056
0.00091318
-0.0012073
0.000838499
-0.00121511
0.000755847
-0.00121747
0.000669544
-0.00121716
0.000582421
-0.00121613
0.000495982
-0.00121551
0.000410758
-0.00121584
0.0003267
-0.00121724
0.000243486
-0.00121968
0.000160737
-0.00122307
7.81094e-05
-0.00122736
-4.67381e-06
-0.00123263
-8.78078e-05
-0.0012391
-0.00017143
-0.00124718
-0.000255655
-0.00125743
-0.000340688
-0.00127061
-0.00042687
-0.00128746
-0.000514738
-0.00130845
-0.000605089
-0.00133313
-0.000698906
-0.00135933
-0.000796949
-0.0013822
-0.00089892
-0.00139344
-0.00100215
-0.00138147
-0.0011
-0.00133315
-0.00118055
-0.00123715
-0.00122685
-0.00108858
-0.00121949
-0.000893437
-0.00114217
-0.000670652
-0.000989185
-0.000449616
-0.000772293
-0.000261708
-0.000522942
-0.000127793
-0.0002851
-4.91511e-05
-9.78058e-05
-1.12728e-05
2.26263e-05
2.16e-06
8.21778e-05
2.88148e-06
8.9832e-05
4.77566e-05
-3.85899e-05
8.52739e-05
-0.000109888
0.000209801
-0.00019915
0.000336186
-0.000302836
0.000476836
-0.000418089
0.000624822
-0.000539954
0.000768856
-0.000661688
0.00089708
-0.000776175
0.000998887
-0.000877333
0.00106699
-0.000960997
0.00109853
-0.00102528
0.00109487
-0.00107054
0.00106071
-0.00109909
0.00100282
-0.00111453
0.000928625
-0.001121
0.000844963
-0.00112234
0.000757186
-0.00112159
0.000668797
-0.00112076
0.000581596
-0.00112091
0.000496133
-0.00112239
0.000412228
-0.00112509
0.000329403
-0.00112876
0.000247154
-0.0011331
0.000165075
-0.00113787
8.28808e-05
-0.00114294
3.94525e-07
-0.00114829
-8.24576e-05
-0.00115402
-0.000165697
-0.00116036
-0.00024931
-0.00116774
-0.00033331
-0.00117683
-0.000417783
-0.00118857
-0.000502996
-0.00120412
-0.000589544
-0.00122456
-0.000678462
-0.0012503
-0.000771208
-0.00127992
-0.000869305
-0.00130874
-0.000973331
-0.00132769
-0.00108105
-0.00132326
-0.00118499
-0.00127956
-0.00127055
-0.00118281
-0.00131623
-0.00102754
-0.00129744
-0.00082216
-0.00119456
-0.000591053
-0.0010034
-0.000369985
-0.00074401
-0.000193734
-0.000461351
-7.99907e-05
-0.000211549
-2.19465e-05
-3.54179e-05
2.49068e-07
5.99822e-05
3.27358e-06
8.68075e-05
5.10302e-05
-4.44957e-05
0.00012977
-0.000123392
0.000288697
-0.000218971
0.000431765
-0.000326557
0.000584423
-0.000442214
0.000740479
-0.000560131
0.000886772
-0.000673357
0.00101031
-0.000775301
0.00110083
-0.000860954
0.00115265
-0.000927573
0.00116515
-0.000974869
0.00114216
-0.00100479
0.00109064
-0.00102095
0.00101897
-0.0010277
0.000935377
-0.00102926
0.000846522
-0.00102897
0.000756894
-0.00102899
0.000668818
-0.00103037
0.00058298
-0.00103335
0.000499107
-0.00103767
0.000416555
-0.00104294
0.000334672
-0.00104875
0.000252964
-0.00105479
0.000171116
-0.00106087
8.89516e-05
-0.00106687
6.39424e-06
-0.00107276
-7.65604e-05
-0.00107858
-0.000159881
-0.00108438
-0.000243506
-0.00109034
-0.000327346
-0.00109681
-0.00041132
-0.00110438
-0.000495425
-0.00111407
-0.000579852
-0.00112735
-0.000665186
-0.00114591
-0.000752647
-0.00117098
-0.000844232
-0.00120195
-0.00094236
-0.00123442
-0.00104858
-0.0012584
-0.001161
-0.00125808
-0.00127087
-0.00121457
-0.00135974
-0.00111199
-0.00140003
-0.0009455
-0.00136105
-0.000728105
-0.0012208
-0.000491752
-0.000980363
-0.000279069
-0.000674033
-0.000125358
-0.000365259
-3.96774e-05
-0.000121099
-4.391e-06
2.46958e-05
3.03222e-06
7.93843e-05
5.40624e-05
-4.83109e-05
0.00017808
-0.000131955
0.000372341
-0.000230702
0.000530513
-0.000338751
0.000692471
-0.00045132
0.000853048
-0.000562183
0.000997635
-0.000664635
0.00111276
-0.00075293
0.00118913
-0.000823329
0.00122305
-0.000874584
0.0012164
-0.000907937
0.00117551
-0.000926643
0.00110934
-0.000935103
0.00102743
-0.00093781
0.000938085
-0.000938465
0.000847177
-0.000939499
0.000757928
-0.000942068
0.000671387
-0.000946374
0.000587285
-0.000952084
0.000504817
-0.000958691
0.000423162
-0.000965735
0.000341716
-0.000972889
0.000260119
-0.000979965
0.000178193
-0.000986881
9.58676e-05
-0.000993617
1.31307e-05
-0.00100018
-7.00025e-05
-0.00100656
-0.0001535
-0.00101275
-0.000237312
-0.00101875
-0.000321349
-0.00102458
-0.00040549
-0.00103042
-0.000489588
-0.00103674
-0.000573529
-0.00104453
-0.000657391
-0.00105546
-0.000741725
-0.00107174
-0.000827949
-0.00109547
-0.00091863
-0.00112685
-0.0010172
-0.00116155
-0.0011263
-0.00118825
-0.00124417
-0.0011883
-0.00135969
-0.00113962
-0.00144871
-0.00102504
-0.00147563
-0.00084261
-0.00140322
-0.000612988
-0.00120999
-0.000377918
-0.000909103
-0.000185672
-0.000557506
-6.59165e-05
-0.000240854
-1.23352e-05
-2.88855e-05
2.04174e-06
6.50072e-05
5.61041e-05
-4.97059e-05
0.000227786
-0.000135087
0.000457721
-0.000233921
0.000629347
-0.000339348
0.000797898
-0.000446033
0.000959733
-0.000547733
0.00109934
-0.000638316
0.00120334
-0.000713084
0.00126389
-0.000769627
0.00127959
-0.000808119
0.00125489
-0.000831073
0.00119847
-0.000842597
0.00112087
-0.00084731
0.00103215
-0.000849279
0.000940053
-0.000851318
0.000849216
-0.000854839
0.000761449
-0.000860133
0.000676681
-0.000866841
0.000593994
-0.000874394
0.000512369
-0.000882279
0.000431048
-0.00089016
0.000349597
-0.000897871
0.000267829
-0.00090537
0.000185692
-0.000912687
0.000103185
-0.000919872
2.03157e-05
-0.000926967
-6.29076e-05
-0.000933987
-0.000146481
-0.000940906
-0.000230393
-0.000947651
-0.000314604
-0.000954108
-0.000399032
-0.000960168
-0.000483528
-0.000965822
-0.000567875
-0.000971363
-0.000651851
-0.000977683
-0.000735405
-0.000986599
-0.000819033
-0.00100087
-0.000904357
-0.00102341
-0.00099466
-0.0010551
-0.00109462
-0.00109128
-0.00120799
-0.0011185
-0.00133247
-0.00111449
-0.00145272
-0.00105406
-0.00153606
-0.000920586
-0.0015367
-0.000718585
-0.00141199
-0.000480238
-0.00114745
-0.000258234
-0.000779511
-0.000101484
-0.000397604
-2.3747e-05
-0.000106623
3.08971e-07
4.09513e-05
5.64131e-05
-4.8594e-05
0.00027638
-0.000132758
0.000541886
-0.00022886
0.000725449
-0.000329094
0.000898132
-0.000427854
0.00105849
-0.000519196
0.00119068
-0.000597778
0.00128192
-0.000660024
0.00132614
-0.000704789
0.00132435
-0.000733444
0.00128355
-0.000749386
0.00121441
-0.000757062
0.00112854
-0.000760802
0.00103589
-0.000763882
0.000943133
-0.00076813
0.000853464
-0.000774078
0.000767397
-0.000781441
0.000684044
-0.000789621
0.000602174
-0.000798059
0.000520808
-0.000806394
0.000439382
-0.000814465
0.000357668
-0.000822261
0.000275624
-0.000829846
0.000193277
-0.000837312
0.000110651
-0.000844744
2.77472e-05
-0.000852204
-5.54472e-05
-0.000859722
-0.000138963
-0.000867291
-0.000222825
-0.000874849
-0.000307045
-0.000882276
-0.000391606
-0.000889374
-0.000476429
-0.000895903
-0.000561346
-0.000901675
-0.000646078
-0.0009068
-0.00073028
-0.000912082
-0.000813751
-0.000919496
-0.000896943
-0.000932357
-0.000981799
-0.000954397
-0.00107257
-0.000986911
-0.00117548
-0.0010241
-0.00129528
-0.00104914
-0.00142768
-0.00103529
-0.00154991
-0.000955159
-0.00161683
-0.000796115
-0.00157103
-0.000574303
-0.00136926
-0.00033721
-0.0010166
-0.000146115
-0.000588699
-3.90023e-05
-0.000213735
-2.30593e-06
4.25488e-06
5.41072e-05
-4.50943e-05
0.000321475
-0.000125311
0.000622102
-0.000216252
0.00081639
-0.00030929
0.000991171
-0.00039879
0.00114799
-0.000479332
0.00127122
-0.000546473
0.00134906
-0.000597723
0.00137739
-0.000633022
0.00135965
-0.000654617
0.00130514
-0.000666349
0.00122614
-0.000672543
0.00113474
-0.000676893
0.00104024
-0.000681765
0.000948005
-0.000688109
0.000859809
-0.000695849
0.000775137
-0.000704427
0.000692622
-0.000713247
0.000610994
-0.000721903
0.000529464
-0.000730221
0.0004477
-0.000738195
0.000365643
-0.000745913
0.000283342
-0.000753489
0.000200854
-0.000761033
0.000118196
-0.000768631
3.53451e-05
-0.000776346
-4.77324e-05
-0.000784212
-0.000131097
-0.000792239
-0.000214798
-0.000800402
-0.000298882
-0.000808621
-0.000383386
-0.000816741
-0.00046831
-0.000824504
-0.000553583
-0.000831562
-0.00063902
-0.000837576
-0.000724267
-0.000842484
-0.000808843
-0.000847035
-0.000892392
-0.000853455
-0.00097538
-0.000865731
-0.0010603
-0.000888382
-0.00115283
-0.00092255
-0.00126111
-0.000959943
-0.00139029
-0.00097868
-0.00153117
-0.00094714
-0.00164837
-0.00083836
-0.00167981
-0.000649503
-0.00155812
-0.000414623
-0.00125148
-0.000197764
-0.000805558
-5.8762e-05
-0.000352737
-5.87513e-06
-4.8632e-05
4.8232e-05
-3.94797e-05
0.000360954
-0.000113343
0.000695965
-0.000197136
0.000900183
-0.000281527
0.00107556
-0.000361028
0.00122749
-0.000430886
0.00134108
-0.000487566
0.00140574
-0.000529541
0.00141936
-0.000557582
0.00138769
-0.000574444
0.00132201
-0.000584005
0.0012357
-0.000590136
0.00114087
-0.000595743
0.00104584
-0.000602344
0.000954606
-0.000610241
0.000867706
-0.000619029
0.000783926
-0.000628113
0.000701705
-0.000637031
0.000619912
-0.000645566
0.000537999
-0.000653699
0.000455832
-0.000661523
0.000373468
-0.000669171
0.000290989
-0.000676764
0.000208447
-0.000684402
0.000125834
-0.000692158
4.31017e-05
-0.000700087
-3.98042e-05
-0.000708217
-0.000122966
-0.000716566
-0.000206449
-0.000725131
-0.000290317
-0.000733877
-0.00037464
-0.000742714
-0.000459472
-0.000751466
-0.000544831
-0.00075983
-0.000630656
-0.000767365
-0.000716731
-0.000773593
-0.000802615
-0.000778325
-0.000887659
-0.00078235
-0.000971354
-0.00078832
-0.00105433
-0.000801071
-0.00114008
-0.000825755
-0.00123643
-0.000862305
-0.00135374
-0.000897821
-0.00149566
-0.000903558
-0.00164263
-0.00084412
-0.00173925
-0.000698581
-0.00170366
-0.000482244
-0.00146782
-0.000252346
-0.00103546
-8.31727e-05
-0.00052191
-1.03788e-05
-0.000121426
3.78533e-05
-3.21217e-05
0.000393076
-9.76035e-05
0.000761447
-0.000172698
0.000975277
-0.000247474
0.00115034
-0.000316696
0.00129671
-0.000376338
0.00140072
-0.000423719
0.00145313
-0.000458089
0.00145373
-0.000480758
0.00141036
-0.000494641
0.00133589
-0.000503337
0.0012444
-0.000510075
0.00114761
-0.000516977
0.00105275
-0.000524887
0.000962516
-0.000533709
0.000876528
-0.000542933
0.000793149
-0.000552058
0.00071083
-0.000560799
0.000628653
-0.000569096
0.000546296
-0.000577032
0.000463769
-0.000584747
0.000381182
-0.000592375
0.000298617
-0.000600027
0.000216098
-0.000607786
0.000133593
-0.00061571
5.10267e-05
-0.000623846
-3.16691e-05
-0.000632214
-0.000114598
-0.000640832
-0.000197831
-0.000649703
-0.000281446
-0.000658814
-0.000365529
-0.000668124
-0.000450162
-0.000677535
-0.00053542
-0.000686853
-0.000621338
-0.00069573
-0.000707855
-0.000703637
-0.000794708
-0.000709972
-0.000881323
-0.000714484
-0.000966843
-0.000718158
-0.00105065
-0.000724363
-0.00113387
-0.000738998
-0.00122179
-0.000767338
-0.0013254
-0.000806132
-0.00145686
-0.000834988
-0.00161377
-0.000817405
-0.00175683
-0.000718645
-0.00180242
-0.000533455
-0.00165301
-0.000304573
-0.00126434
-0.000111223
-0.00071526
-1.58197e-05
-0.000216829
2.20336e-05
-2.34443e-05
0.00041652
-7.88971e-05
0.0008169
-0.000144137
0.00104052
-0.000208718
0.00121492
-0.000267698
0.00135569
-0.000317777
0.0014508
-0.00035702
0.00149237
-0.000385244
0.00148196
-0.000404013
0.00142913
-0.000416112
0.00134799
-0.000424651
0.00125294
-0.00043216
0.00115512
-0.000440081
0.00106067
-0.00044879
0.000971224
-0.000457999
0.000885738
-0.000467234
0.000802385
-0.000476145
0.00071974
-0.0004846
0.000637108
-0.000492648
0.000554344
-0.000500421
0.000471543
-0.000508066
0.000388827
-0.000515704
0.000306256
-0.000523429
0.000223823
-0.000531312
0.000141476
-0.000539403
5.91184e-05
-0.000547744
-2.33283e-05
-0.000556351
-0.000105991
-0.000565235
-0.000188947
-0.000574398
-0.000272283
-0.000583834
-0.000356094
-0.000593518
-0.000440478
-0.000603403
-0.000525535
-0.00061338
-0.000611361
-0.000623228
-0.000698006
-0.000632545
-0.000785391
-0.000640707
-0.000873162
-0.000647007
-0.000960543
-0.000651229
-0.00104643
-0.000654841
-0.00113026
-0.00066233
-0.0012143
-0.000680724
-0.001307
-0.000714082
-0.0014235
-0.000752676
-0.00157518
-0.000765639
-0.00174387
-0.000710953
-0.0018571
-0.000564411
-0.00179955
-0.000349406
-0.00147934
-0.000140916
-0.00092375
-2.20959e-05
-0.000335649
-6.23392e-08
-1.38883e-05
0.000430408
-5.80221e-05
0.000861034
-0.000112579
0.00109507
-0.000166675
0.00126902
-0.00021564
0.00140466
-0.000256852
0.00149201
-0.000288995
0.00152451
-0.000312244
0.00150521
-0.000328171
0.00144506
-0.000339214
0.00135903
-0.000347883
0.00126161
-0.000356041
0.00116327
-0.000364595
0.00106922
-0.000373636
0.000980266
-0.000382835
0.000894937
-0.000391823
0.000811372
-0.000400392
0.00072831
-0.000408529
0.000645245
-0.000416339
0.000562154
-0.000423968
0.000479173
-0.000431552
0.000396411
-0.000439194
0.000313898
-0.000446975
0.000231604
-0.00045496
0.00014946
-0.0004632
6.73589e-05
-0.000471738
-1.47902e-05
-0.000480587
-9.71416e-05
-0.000489754
-0.00017978
-0.000499235
-0.000262801
-0.00050902
-0.000346309
-0.000519088
-0.000430409
-0.000529409
-0.000515215
-0.000539921
-0.000600849
-0.000550498
-0.000687429
-0.000560879
-0.000775009
-0.000570586
-0.000863456
-0.000578881
-0.000952247
-0.000584998
-0.00104031
-0.000588949
-0.00112631
-0.000593109
-0.00121014
-0.000603559
-0.00129655
-0.000627965
-0.0013991
-0.00066624
-0.00153691
-0.000697575
-0.00171253
-0.000679859
-0.00187482
-0.000574286
-0.00190512
-0.000383131
-0.0016705
-0.000169676
-0.00113721
-2.94184e-05
-0.000475907
-2.94807e-05
-3.87369e-06
0.000434282
-3.57431e-05
0.000892903
-7.90314e-05
0.00113836
-0.000122546
0.00131253
-0.000161809
0.00144392
-0.000194799
0.001525
-0.00022069
0.0015504
-0.000239831
0.00152435
-0.00025361
0.00145884
-0.000263977
0.0013694
-0.000272802
0.00127043
-0.000281361
0.00117183
-0.000290169
0.00107803
-0.000299175
0.000989271
-0.000308092
0.000903854
-0.000316677
0.000819956
-0.000324842
0.000736475
-0.000332645
0.000653048
-0.000340214
0.000569724
-0.00034769
0.000486648
-0.000355189
0.00040391
-0.000362803
0.000321512
-0.000370602
0.000239404
-0.000378651
0.000157509
-0.000387011
7.57195e-05
-0.000395729
-6.07206e-06
-0.00040482
-8.80502e-05
-0.000414288
-0.000170312
-0.000424122
-0.000252968
-0.000434303
-0.000336128
-0.000444809
-0.000419903
-0.000455611
-0.000504413
-0.000466667
-0.000589792
-0.000477902
-0.000676195
-0.000489153
-0.000763757
-0.000500098
-0.000852511
-0.000510151
-0.000942194
-0.000518462
-0.001032
-0.000524294
-0.00112048
-0.000528238
-0.0012062
-0.000534211
-0.00129058
-0.000550148
-0.00138316
-0.000582405
-0.00150465
-0.000621482
-0.00167346
-0.000631398
-0.0018649
-0.0005648
-0.00197172
-0.000403864
-0.00183144
-0.000195059
-0.00134601
-3.78502e-05
-0.000633116
-6.7331e-05
6.06231e-06
0.00042822
-1.27288e-05
0.000911694
-4.43862e-05
0.00117002
-7.7323e-05
0.00134547
-0.000107204
0.0014738
-0.000132504
0.0015503
-0.000152771
0.00157067
-0.000168388
0.00153997
-0.000180422
0.00147087
-0.000190255
0.00137923
-0.00019913
0.00127931
-0.000207816
0.00118052
-0.00021656
0.00108677
-0.000225259
0.00099797
-0.000233712
0.000912308
-0.000241796
0.00082804
-0.000249512
0.000744191
-0.000256955
0.000660491
-0.000264257
0.000577026
-0.000271543
0.000493934
-0.000278915
0.000411282
-0.000286454
0.000329052
-0.000294227
0.000247177
-0.000302299
0.000165581
-0.000310743
8.41642e-05
-0.000319616
2.80113e-06
-0.000328943
-7.87229e-05
-0.000338724
-0.00016053
-0.000348939
-0.000242753
-0.000359564
-0.000325502
-0.000370571
-0.000408896
-0.000381929
-0.000493054
-0.000393603
-0.000578119
-0.000405537
-0.000664261
-0.000417626
-0.000751668
-0.000429655
-0.000840482
-0.000441204
-0.000930645
-0.000451558
-0.00102165
-0.000459779
-0.00111225
-0.00046539
-0.00120059
-0.000470151
-0.00128582
-0.000480263
-0.00137305
-0.000504787
-0.00148012
-0.000543964
-0.00163428
-0.000571952
-0.00183692
-0.000539372
-0.0020043
-0.000411497
-0.00195931
-0.000215302
-0.00154221
-4.69671e-05
-0.00080145
-0.000114298
1.53113e-05
0.000412908
1.0381e-05