/*--------------------------------*- C++ -*----------------------------------*\
  =========                 |
  \\      /  F ield         | OpenFOAM: The Open Source CFD Toolbox
   \\    /   O peration     | Website:  https://openfoam.org
    \\  /    A nd           | Version:  7
     \\/     M anipulation  |
\*---------------------------------------------------------------------------*/
FoamFile
{
    version     2.0;
    format      ascii;
    class       volVectorField;
    location    "1500";
    object      U;
}
// * * * * * * * * * * * * * * * * * * * * * * * * * * * * * * * * * * * * * //

dimensions      [0 1 -1 0 0 0 0];

internalField   nonuniform List<vector> 
2500
(
(0.00020703 -0.00020166 0)
(0.00186533 -0.000571339 0)
(0.00447391 -0.000697873 0)
(0.007163 -0.000600117 0)
(0.00922914 -0.000418998 0)
(0.0104505 -0.00026433 0)
(0.0109303 -0.000187995 0)
(0.0108812 -0.000185866 0)
(0.0104507 -0.000219852 0)
(0.0096343 -0.000245418 0)
(0.00828278 -0.000228674 0)
(0.00616381 -0.000150769 0)
(0.00302013 -2.65656e-06 0)
(-0.00139197 0.000221042 0)
(-0.00727711 0.000523466 0)
(-0.0147678 0.000908153 0)
(-0.0238865 0.00137511 0)
(-0.0345032 0.0019127 0)
(-0.0462999 0.00248771 0)
(-0.0587507 0.00303785 0)
(-0.0711272 0.00347334 0)
(-0.0825357 0.00368961 0)
(-0.0919873 0.00358826 0)
(-0.0984992 0.00310407 0)
(-0.101206 0.0022313 0)
(-0.099435 0.00102805 0)
(-0.092917 -0.000374825 0)
(-0.0817256 -0.00181176 0)
(-0.0663287 -0.00310923 0)
(-0.0475833 -0.00410036 0)
(-0.0267082 -0.00464014 0)
(-0.00518566 -0.00460587 0)
(0.0154586 -0.00393553 0)
(0.0337546 -0.00278419 0)
(0.0483953 -0.00137117 0)
(0.0584252 0.00012583 0)
(0.0634644 0.00149702 0)
(0.0637257 0.00253432 0)
(0.0600154 0.00311191 0)
(0.0534991 0.00322485 0)
(0.0454085 0.00298644 0)
(0.0368471 0.00254958 0)
(0.0286516 0.00204868 0)
(0.0213419 0.00157433 0)
(0.0151477 0.00117422 0)
(0.01008 0.000863413 0)
(0.00602908 0.000631236 0)
(0.00290116 0.000436019 0)
(0.000795342 0.000192788 0)
(-8.20237e-05 -8.74248e-05 0)
(0.000566052 -0.00181927 0)
(0.00437395 -0.0043173 0)
(0.00958145 -0.00511719 0)
(0.0146034 -0.00444081 0)
(0.0181611 -0.00299835 0)
(0.019768 -0.00145776 0)
(0.0194625 -0.000192394 0)
(0.017456 0.000765706 0)
(0.0138336 0.00162535 0)
(0.00840644 0.00266525 0)
(0.000737738 0.00410271 0)
(-0.00972869 0.00604365 0)
(-0.0235219 0.00849227 0)
(-0.0410044 0.0113815 0)
(-0.0622563 0.0145729 0)
(-0.0869703 0.0178409 0)
(-0.114389 0.020865 0)
(-0.143317 0.0232529 0)
(-0.172233 0.024596 0)
(-0.199456 0.024537 0)
(-0.223331 0.022829 0)
(-0.242376 0.0193724 0)
(-0.255393 0.0142312 0)
(-0.261526 0.00763807 0)
(-0.260299 -1.69859e-05 0)
(-0.251645 -0.00821789 0)
(-0.235758 -0.0163943 0)
(-0.213088 -0.0239922 0)
(-0.1844 -0.0304486 0)
(-0.150783 -0.0352297 0)
(-0.113646 -0.0378733 0)
(-0.0746883 -0.0380358 0)
(-0.0358196 -0.0355726 0)
(0.00102639 -0.0306669 0)
(0.0340045 -0.0238173 0)
(0.0614378 -0.0157497 0)
(0.0820092 -0.00728525 0)
(0.0949976 0.00069341 0)
(0.100268 0.00734303 0)
(0.0984351 0.0120815 0)
(0.090954 0.0147113 0)
(0.0796108 0.0154344 0)
(0.0662316 0.0147153 0)
(0.0524142 0.0131077 0)
(0.0393369 0.0111172 0)
(0.0276938 0.00911038 0)
(0.0177734 0.00724883 0)
(0.00968224 0.00543467 0)
(0.00372622 0.00334321 0)
(0.000329293 0.000918464 0)
(0.000785712 -0.00449573 0)
(0.00568827 -0.00969554 0)
(0.0117176 -0.0109175 0)
(0.0169064 -0.00900586 0)
(0.0197638 -0.00542397 0)
(0.0197128 -0.00146963 0)
(0.016671 0.00215281 0)
(0.0106363 0.00542335 0)
(0.0013836 0.0087811 0)
(-0.011619 0.0127924 0)
(-0.0290843 0.0178434 0)
(-0.0516401 0.0240112 0)
(-0.0795917 0.0310843 0)
(-0.11271 0.0385991 0)
(-0.15012 0.0458753 0)
(-0.190348 0.0520944 0)
(-0.231504 0.0564326 0)
(-0.271554 0.0582037 0)
(-0.308573 0.0569615 0)
(-0.340936 0.0525403 0)
(-0.367405 0.0450387 0)
(-0.387134 0.0347721 0)
(-0.399612 0.022214 0)
(-0.404579 0.00794507 0)
(-0.401958 -0.00738587 0)
(-0.391724 -0.0230969 0)
(-0.373916 -0.0384751 0)
(-0.348806 -0.0527314 0)
(-0.316876 -0.0650322 0)
(-0.278893 -0.0745394 0)
(-0.23595 -0.0804781 0)
(-0.189483 -0.0822379 0)
(-0.141252 -0.0794892 0)
(-0.09326 -0.0722883 0)
(-0.04762 -0.0611827 0)
(-0.0063263 -0.0471778 0)
(0.028898 -0.0315652 0)
(0.0566951 -0.0157921 0)
(0.0763735 -0.00114855 0)
(0.0876597 0.0111689 0)
(0.0908166 0.0202525 0)
(0.0870979 0.025739 0)
(0.078209 0.0278605 0)
(0.0660397 0.0273066 0)
(0.0523902 0.0249763 0)
(0.0387215 0.0217247 0)
(0.0260341 0.0181223 0)
(0.014968 0.0142393 0)
(0.00625649 0.00958309 0)
(0.000705216 0.00358672 0)
(0.000917676 -0.00772718 0)
(0.0060683 -0.0155929 0)
(0.0115462 -0.0165382 0)
(0.0151638 -0.0124519 0)
(0.015418 -0.00573362 0)
(0.0117499 0.00169973 0)
(0.00393507 0.00894271 0)
(-0.00837529 0.0161038 0)
(-0.0258463 0.0239457 0)
(-0.0492935 0.0332196 0)
(-0.0793541 0.0442053 0)
(-0.116126 0.0565621 0)
(-0.158941 0.0694141 0)
(-0.206347 0.0815387 0)
(-0.256304 0.0916071 0)
(-0.306529 0.0984336 0)
(-0.354849 0.10117 0)
(-0.399454 0.0993945 0)
(-0.439013 0.0930946 0)
(-0.472647 0.0825702 0)
(-0.499831 0.0683208 0)
(-0.520267 0.0509468 0)
(-0.533765 0.0310788 0)
(-0.540156 0.0093494 0)
(-0.539278 -0.0135821 0)
(-0.530951 -0.0369802 0)
(-0.515051 -0.0599949 0)
(-0.491545 -0.0816663 0)
(-0.460538 -0.100931 0)
(-0.42235 -0.116645 0)
(-0.377609 -0.127667 0)
(-0.327326 -0.133 0)
(-0.272968 -0.131952 0)
(-0.216474 -0.124319 0)
(-0.16016 -0.110531 0)
(-0.106508 -0.091699 0)
(-0.0578657 -0.0695255 0)
(-0.0161023 -0.0460127 0)
(0.0175875 -0.0230746 0)
(0.0426139 -0.00245393 0)
(0.0589145 0.0146127 0)
(0.0667496 0.0272017 0)
(0.0672305 0.0349384 0)
(0.0619129 0.0381644 0)
(0.0525863 0.037784 0)
(0.0410423 0.0349327 0)
(0.0288318 0.030568 0)
(0.0171899 0.0250318 0)
(0.00742137 0.0177401 0)
(0.000862117 0.00736592 0)
(0.00099976 -0.0110183 0)
(0.00561091 -0.0208281 0)
(0.00922903 -0.0203488 0)
(0.0096781 -0.0129022 0)
(0.00561991 -0.00193598 0)
(-0.0034643 0.0101268 0)
(-0.0180391 0.0223857 0)
(-0.03886 0.035284 0)
(-0.066861 0.0497616 0)
(-0.102694 0.0663445 0)
(-0.146257 0.08466 0)
(-0.196476 0.103478 0)
(-0.251411 0.121067 0)
(-0.308615 0.135633 0)
(-0.365584 0.145691 0)
(-0.420136 0.15029 0)
(-0.470627 0.149062 0)
(-0.515975 0.142133 0)
(-0.555548 0.129956 0)
(-0.589018 0.11315 0)
(-0.616228 0.0923877 0)
(-0.637101 0.0683351 0)
(-0.651565 0.0416228 0)
(-0.659534 0.0128707 0)
(-0.660913 -0.0172592 0)
(-0.655576 -0.0480304 0)
(-0.643302 -0.0785938 0)
(-0.623805 -0.107948 0)
(-0.596801 -0.134904 0)
(-0.562067 -0.158097 0)
(-0.51955 -0.176057 0)
(-0.469535 -0.187327 0)
(-0.412835 -0.19065 0)
(-0.350936 -0.185246 0)
(-0.28604 -0.171099 0)
(-0.220981 -0.149143 0)
(-0.158925 -0.121271 0)
(-0.102876 -0.0900833 0)
(-0.055123 -0.0584334 0)
(-0.016852 -0.0288396 0)
(0.0118112 -0.00307721 0)
(0.0312461 0.0176521 0)
(0.0420064 0.0326785 0)
(0.0452962 0.0418479 0)
(0.0426351 0.0456989 0)
(0.0357495 0.0452999 0)
(0.0264024 0.0417603 0)
(0.0162521 0.0356005 0)
(0.00711036 0.0261578 0)
(0.00079655 0.0113832 0)
(0.000995757 -0.0139233 0)
(0.00416198 -0.0242952 0)
(0.00458136 -0.020879 0)
(0.000396331 -0.00872688 0)
(-0.00946611 0.00765949 0)
(-0.0255684 0.0255982 0)
(-0.0486536 0.0444875 0)
(-0.079702 0.0650007 0)
(-0.119428 0.0877945 0)
(-0.167649 0.112555 0)
(-0.223019 0.137829 0)
(-0.283237 0.161462 0)
(-0.345535 0.181233 0)
(-0.407221 0.195366 0)
(-0.466073 0.20279 0)
(-0.520507 0.203158 0)
(-0.569549 0.196694 0)
(-0.612691 0.18398 0)
(-0.649736 0.165753 0)
(-0.680684 0.142797 0)
(-0.705668 0.115874 0)
(-0.724885 0.085683 0)
(-0.738544 0.0528592 0)
(-0.746844 0.0180191 0)
(-0.749909 -0.0182303 0)
(-0.74773 -0.0552847 0)
(-0.740094 -0.0924516 0)
(-0.726574 -0.128841 0)
(-0.706569 -0.163329 0)
(-0.679306 -0.194536 0)
(-0.643976 -0.220809 0)
(-0.599936 -0.240274 0)
(-0.546954 -0.251033 0)
(-0.485479 -0.251484 0)
(-0.416915 -0.240716 0)
(-0.343801 -0.218884 0)
(-0.269712 -0.187497 0)
(-0.198842 -0.149408 0)
(-0.135237 -0.108391 0)
(-0.0819004 -0.0683238 0)
(-0.0401225 -0.0323253 0)
(-0.00952791 -0.00225877 0)
(0.0110508 0.0211439 0)
(0.0228046 0.0376016 0)
(0.0271616 0.0473302 0)
(0.0257856 0.0511117 0)
(0.0204669 0.0499403 0)
(0.0130791 0.0443209 0)
(0.00574976 0.0334782 0)
(0.000591079 0.0148945 0)
(0.000839932 -0.0158649 0)
(0.00148435 -0.024771 0)
(-0.00259483 -0.0166955 0)
(-0.012685 0.00144913 0)
(-0.0295706 0.0244039 0)
(-0.0539262 0.0495715 0)
(-0.0866513 0.0766434 0)
(-0.128506 0.106083 0)
(-0.179363 0.137644 0)
(-0.237797 0.169779 0)
(-0.30128 0.200008 0)
(-0.366779 0.225698 0)
(-0.431382 0.244733 0)
(-0.492723 0.255852 0)
(-0.549146 0.258661 0)
(-0.599653 0.253442 0)
(-0.64377 0.240901 0)
(-0.681395 0.221944 0)
(-0.712705 0.197544 0)
(-0.738095 0.168656 0)
(-0.758093 0.136148 0)
(-0.773278 0.100761 0)
(-0.784225 0.0631285 0)
(-0.791433 0.0237922 0)
(-0.795224 -0.0168115 0)
(-0.795725 -0.0582987 0)
(-0.792851 -0.100222 0)
(-0.786176 -0.141966 0)
(-0.774948 -0.182698 0)
(-0.758065 -0.221254 0)
(-0.734171 -0.256028 0)
(-0.701782 -0.28497 0)
(-0.659483 -0.30572 0)
(-0.606293 -0.315852 0)
(-0.542138 -0.313256 0)
(-0.468294 -0.296703 0)
(-0.387665 -0.266444 0)
(-0.30474 -0.22463 0)
(-0.22505 -0.175281 0)
(-0.154069 -0.123628 0)
(-0.095797 -0.0748623 0)
(-0.0516939 -0.0327777 0)
(-0.0207447 0.000872148 0)
(-0.000741331 0.0259511 0)
(0.0103116 0.0427913 0)
(0.0143167 0.0520148 0)
(0.0132096 0.0544186 0)
(0.00901439 0.0503556 0)
(0.00400131 0.0389283 0)
(0.0003623 0.0174929 0)
(0.000465177 -0.016098 0)
(-0.00257258 -0.0209753 0)
(-0.0122833 -0.00661997 0)
(-0.0292312 0.0186562 0)
(-0.053947 0.0492692 0)
(-0.0871821 0.0828745 0)
(-0.129661 0.11912 0)
(-0.181391 0.157659 0)
(-0.241051 0.19694 0)
(-0.306052 0.234252 0)
(-0.373159 0.266547 0)
(-0.439202 0.291287 0)
(-0.501579 0.306908 0)
(-0.558444 0.312873 0)
(-0.608683 0.309472 0)
(-0.651789 0.297539 0)
(-0.687737 0.2782 0)
(-0.716883 0.252696 0)
(-0.739881 0.222262 0)
(-0.757579 0.188032 0)
(-0.770895 0.150947 0)
(-0.780724 0.111747 0)
(-0.787884 0.0709865 0)
(-0.793013 0.0290337 0)
(-0.796549 -0.0138953 0)
(-0.798757 -0.0576325 0)
(-0.7997 -0.102014 0)
(-0.799071 -0.146802 0)
(-0.796221 -0.191569 0)
(-0.790105 -0.235529 0)
(-0.779244 -0.27741 0)
(-0.761693 -0.315383 0)
(-0.735165 -0.347029 0)
(-0.697361 -0.369393 0)
(-0.646455 -0.379287 0)
(-0.581702 -0.373878 0)
(-0.504109 -0.351465 0)
(-0.416955 -0.3123 0)
(-0.325818 -0.259208 0)
(-0.237858 -0.197613 0)
(-0.16027 -0.134596 0)
(-0.0982327 -0.0770006 0)
(-0.0533092 -0.029372 0)
(-0.0235749 0.00687221 0)
(-0.00555707 0.0324509 0)
(0.00361724 0.0482951 0)
(0.0064603 0.0552493 0)
(0.00529059 0.0535888 0)
(0.00248808 0.0423774 0)
(0.000209295 0.0191575 0)
(-0.000171704 -0.0137886 0)
(-0.00796427 -0.0118342 0)
(-0.024119 0.0101975 0)
(-0.0484341 0.0435001 0)
(-0.0812277 0.0826347 0)
(-0.123136 0.125383 0)
(-0.174297 0.170817 0)
(-0.233639 0.217339 0)
(-0.298698 0.262098 0)
(-0.366138 0.301643 0)
(-0.432539 0.332912 0)
(-0.494994 0.353891 0)
(-0.551387 0.363776 0)
(-0.600417 0.362788 0)
(-0.641504 0.351871 0)
(-0.674678 0.332401 0)
(-0.700468 0.305951 0)
(-0.719778 0.274108 0)
(-0.73374 0.238331 0)
(-0.743551 0.199836 0)
(-0.750338 0.159533 0)
(-0.755097 0.118061 0)
(-0.758636 0.0758015 0)
(-0.761541 0.0329099 0)
(-0.764254 -0.0105782 0)
(-0.767102 -0.0546782 0)
(-0.77021 -0.0994789 0)
(-0.773477 -0.145058 0)
(-0.77658 -0.191345 0)
(-0.77886 -0.238006 0)
(-0.779148 -0.284336 0)
(-0.775635 -0.329086 0)
(-0.765861 -0.370238 0)
(-0.746821 -0.404892 0)
(-0.715277 -0.429364 0)
(-0.66836 -0.439566 0)
(-0.60449 -0.431714 0)
(-0.52435 -0.403379 0)
(-0.431632 -0.354712 0)
(-0.333158 -0.28937 0)
(-0.237972 -0.214567 0)
(-0.155216 -0.13971 0)
(-0.0912438 -0.0736194 0)
(-0.0473986 -0.0215306 0)
(-0.0204265 0.0158073 0)
(-0.00547013 0.0401164 0)
(0.0012063 0.0527807 0)
(0.00267485 0.0543886 0)
(0.00160633 0.0442029 0)
(0.000183963 0.0201687 0)
(-0.00107237 -0.00816848 0)
(-0.0144147 0.00340138 0)
(-0.0373651 0.0341365 0)
(-0.0690396 0.0760383 0)
(-0.109494 0.124125 0)
(-0.158983 0.175938 0)
(-0.216764 0.229503 0)
(-0.280679 0.281864 0)
(-0.347455 0.329207 0)
(-0.413478 0.367864 0)
(-0.475521 0.395205 0)
(-0.53114 0.40998 0)
(-0.578785 0.412224 0)
(-0.617759 0.402936 0)
(-0.648117 0.383739 0)
(-0.670546 0.356578 0)
(-0.686189 0.323451 0)
(-0.696445 0.286198 0)
(-0.702749 0.246343 0)
(-0.706399 0.205007 0)
(-0.70847 0.162933 0)
(-0.709797 0.120545 0)
(-0.71096 0.0780046 0)
(-0.712352 0.0352954 0)
(-0.714291 -0.00767013 0)
(-0.717038 -0.0510387 0)
(-0.720714 -0.0950221 0)
(-0.725422 -0.13983 0)
(-0.731196 -0.185615 0)
(-0.737858 -0.232443 0)
(-0.744845 -0.280194 0)
(-0.751033 -0.328337 0)
(-0.754539 -0.375647 0)
(-0.752538 -0.419943 0)
(-0.741279 -0.457887 0)
(-0.716492 -0.484967 0)
(-0.67419 -0.495907 0)
(-0.611846 -0.48566 0)
(-0.529743 -0.450891 0)
(-0.432072 -0.391672 0)
(-0.32716 -0.312794 0)
(-0.226232 -0.223843 0)
(-0.140478 -0.137176 0)
(-0.0771148 -0.0638165 0)
(-0.0365896 -0.00930644 0)
(-0.01378 0.0268073 0)
(-0.00262557 0.0471509 0)
(0.00130403 0.0532524 0)
(0.00144717 0.0450207 0)
(0.00028823 0.0209465 0)
(-0.00217953 0.0013096 0)
(-0.0214257 0.0250197 0)
(-0.0510199 0.0650589 0)
(-0.0894982 0.115739 0)
(-0.136547 0.172607 0)
(-0.19181 0.232554 0)
(-0.25359 0.292326 0)
(-0.31888 0.347802 0)
(-0.384013 0.394674 0)
(-0.445469 0.429523 0)
(-0.500443 0.450442 0)
(-0.547076 0.457085 0)
(-0.584488 0.450391 0)
(-0.612704 0.432185 0)
(-0.632523 0.404796 0)
(-0.645308 0.370682 0)
(-0.652707 0.332124 0)
(-0.656382 0.290995 0)
(-0.657783 0.248655 0)
(-0.658036 0.205958 0)
(-0.657929 0.163351 0)
(-0.657959 0.120989 0)
(-0.658392 0.078836 0)
(-0.659373 0.0367685 0)
(-0.66102 -0.00537084 0)
(-0.663469 -0.0477659 0)
(-0.666812 -0.0906039 0)
(-0.671246 -0.134071 0)
(-0.677001 -0.17839 0)
(-0.684265 -0.223827 0)
(-0.693093 -0.270632 0)
(-0.703231 -0.318887 0)
(-0.713808 -0.36829 0)
(-0.722971 -0.41781 0)
(-0.727615 -0.465209 0)
(-0.723338 -0.506628 0)
(-0.704813 -0.53652 0)
(-0.666777 -0.548163 0)
(-0.605638 -0.534956 0)
(-0.521346 -0.492476 0)
(-0.418864 -0.420877 0)
(-0.308419 -0.32672 0)
(-0.203738 -0.222887 0)
(-0.117976 -0.125397 0)
(-0.0584547 -0.0473735 0)
(-0.0236433 0.00624512 0)
(-0.00618863 0.0377628 0)
(0.000679896 0.0503923 0)
(0.00181016 0.0453567 0)
(0.000485833 0.0218742 0)
(-0.00335789 0.0148792 0)
(-0.0283503 0.0528195 0)
(-0.0639638 0.10234 0)
(-0.108201 0.161519 0)
(-0.16027 0.22636 0)
(-0.219097 0.292807 0)
(-0.28216 0.356347 0)
(-0.345945 0.412058 0)
(-0.406748 0.455604 0)
(-0.461403 0.484165 0)
(-0.50768 0.496755 0)
(-0.544427 0.494043 0)
(-0.571543 0.477943 0)
(-0.58986 0.451131 0)
(-0.6009 0.416562 0)
(-0.606537 0.377025 0)
(-0.608654 0.334814 0)
(-0.608856 0.291573 0)
(-0.608326 0.24829 0)
(-0.607812 0.20543 0)
(-0.607704 0.163106 0)
(-0.608141 0.121234 0)
(-0.609118 0.0796486 0)
(-0.610576 0.0381765 0)
(-0.612469 -0.00334511 0)
(-0.614835 -0.0450508 0)
(-0.617734 -0.0870397 0)
(-0.621317 -0.129412 0)
(-0.625826 -0.172329 0)
(-0.631591 -0.216032 0)
(-0.639016 -0.260853 0)
(-0.648463 -0.307197 0)
(-0.660017 -0.355449 0)
(-0.673138 -0.405677 0)
(-0.686191 -0.457105 0)
(-0.69594 -0.507453 0)
(-0.697317 -0.552309 0)
(-0.683823 -0.584873 0)
(-0.64883 -0.596577 0)
(-0.587698 -0.578897 0)
(-0.500254 -0.526288 0)
(-0.392709 -0.43952 0)
(-0.277807 -0.328018 0)
(-0.172116 -0.209261 0)
(-0.0902936 -0.10356 0)
(-0.0383206 -0.0252681 0)
(-0.0113364 0.0229113 0)
(-0.000154116 0.0453688 0)
(0.00229731 0.0453554 0)
(0.000720665 0.0231568 0)
(-0.00444351 0.0323883 0)
(-0.0345361 0.0861363 0)
(-0.0751399 0.144923 0)
(-0.123721 0.211871 0)
(-0.178946 0.283348 0)
(-0.23906 0.354221 0)
(-0.300958 0.418934 0)
(-0.360948 0.472181 0)
(-0.415566 0.509987 0)
(-0.462174 0.530391 0)
(-0.499243 0.533483 0)
(-0.526419 0.521042 0)
(-0.544438 0.495985 0)
(-0.554882 0.461752 0)
(-0.5598 0.421709 0)
(-0.561278 0.378677 0)
(-0.561091 0.334666 0)
(-0.560505 0.290859 0)
(-0.560257 0.247764 0)
(-0.560656 0.205446 0)
(-0.56173 0.163744 0)
(-0.563368 0.122425 0)
(-0.565412 0.0812781 0)
(-0.567708 0.0401373 0)
(-0.570148 -0.00111477 0)
(-0.572734 -0.0425398 0)
(-0.575491 -0.0841629 0)
(-0.578477 -0.126002 0)
(-0.581846 -0.168106 0)
(-0.585869 -0.210579 0)
(-0.590951 -0.253637 0)
(-0.597632 -0.297685 0)
(-0.606519 -0.343327 0)
(-0.618093 -0.391267 0)
(-0.632263 -0.441979 0)
(-0.64768 -0.495062 0)
(-0.661005 -0.548247 0)
(-0.666487 -0.596386 0)
(-0.656372 -0.631022 0)
(-0.622561 -0.641252 0)
(-0.559466 -0.616326 0)
(-0.467291 -0.549805 0)
(-0.35434 -0.444127 0)
(-0.236687 -0.31337 0)
(-0.133897 -0.181256 0)
(-0.0609066 -0.0724188 0)
(-0.0200558 -0.000197231 0)
(-0.00226798 0.0369455 0)
(0.00247013 0.0446314 0)
(0.000940082 0.0247549 0)
(-0.00528807 0.0532751 0)
(-0.039422 0.123912 0)
(-0.0836901 0.191435 0)
(-0.134992 0.265062 0)
(-0.191454 0.341492 0)
(-0.250776 0.41457 0)
(-0.309541 0.478002 0)
(-0.364155 0.526493 0)
(-0.411586 0.556742 0)
(-0.449844 0.567841 0)
(-0.478179 0.561082 0)
(-0.497067 0.539389 0)
(-0.508006 0.506603 0)
(-0.51312 0.466706 0)
(-0.514672 0.42316 0)
(-0.514618 0.378486 0)
(-0.514347 0.334165 0)
(-0.51463 0.290813 0)
(-0.515734 0.248468 0)
(-0.517612 0.20689 0)
(-0.52007 0.165767 0)
(-0.522891 0.124829 0)
(-0.525894 0.0838891 0)
(-0.528936 0.0428296 0)
(-0.531932 0.00159181 0)
(-0.534884 -0.0398362 0)
(-0.537813 -0.0814404 0)
(-0.540708 -0.123195 0)
(-0.543625 -0.165065 0)
(-0.546681 -0.207035 0)
(-0.5501 -0.249161 0)
(-0.55427 -0.291642 0)
(-0.559814 -0.33492 0)
(-0.567573 -0.379766 0)
(-0.578401 -0.427241 0)
(-0.592657 -0.47833 0)
(-0.609344 -0.533052 0)
(-0.625031 -0.589059 0)
(-0.633141 -0.640157 0)
(-0.624447 -0.675673 0)
(-0.58934 -0.681739 0)
(-0.521668 -0.645163 0)
(-0.422914 -0.559379 0)
(-0.304691 -0.430479 0)
(-0.187305 -0.279818 0)
(-0.0928425 -0.138946 0)
(-0.0339616 -0.0351811 0)
(-0.0065024 0.0231764 0)
(0.0020129 0.0423148 0)
(0.00111659 0.0264184 0)
(-0.00577023 0.0766341 0)
(-0.0425957 0.164813 0)
(-0.0890407 0.24033 0)
(-0.141397 0.319319 0)
(-0.197314 0.398894 0)
(-0.254128 0.472053 0)
(-0.308364 0.532105 0)
(-0.356723 0.574098 0)
(-0.396732 0.595645 0)
(-0.427119 0.597044 0)
(-0.44792 0.580842 0)
(-0.460362 0.551053 0)
(-0.466503 0.512237 0)
(-0.468711 0.4686 0)
(-0.469132 0.423349 0)
(-0.469323 0.378441 0)
(-0.470152 0.334713 0)
(-0.471898 0.292236 0)
(-0.474471 0.250704 0)
(-0.477621 0.209715 0)
(-0.481088 0.168936 0)
(-0.484674 0.128146 0)
(-0.488255 0.0872196 0)
(-0.491755 0.0460999 0)
(-0.495138 0.00477059 0)
(-0.498435 -0.0367595 0)
(-0.501674 -0.0784667 0)
(-0.504823 -0.120322 0)
(-0.507875 -0.162269 0)
(-0.510827 -0.204245 0)
(-0.513714 -0.246188 0)
(-0.516675 -0.288093 0)
(-0.520053 -0.330109 0)
(-0.524495 -0.372701 0)
(-0.531008 -0.416819 0)
(-0.540814 -0.463915 0)
(-0.55476 -0.515532 0)
(-0.572168 -0.572132 0)
(-0.589349 -0.631104 0)
(-0.598623 -0.684635 0)
(-0.589042 -0.718934 0)
(-0.549576 -0.71645 0)
(-0.474268 -0.661753 0)
(-0.367344 -0.549927 0)
(-0.245336 -0.394022 0)
(-0.133348 -0.22607 0)
(-0.054041 -0.0858262 0)
(-0.0133494 0.00164346 0)
(0.000773747 0.0372249 0)
(0.00125402 0.0277883 0)
(-0.00581442 0.101332 0)
(-0.0438247 0.207359 0)
(-0.0909279 0.290031 0)
(-0.142768 0.372993 0)
(-0.196619 0.453972 0)
(-0.249645 0.525373 0)
(-0.298511 0.580422 0)
(-0.340353 0.614785 0)
(-0.373319 0.627163 0)
(-0.396851 0.619142 0)
(-0.411701 0.594498 0)
(-0.419665 0.558168 0)
(-0.423088 0.515131 0)
(-0.424273 0.469469 0)
(-0.424995 0.423849 0)
(-0.426289 0.379527 0)
(-0.42852 0.336718 0)
(-0.4316 0.295082 0)
(-0.435247 0.254128 0)
(-0.439167 0.213441 0)
(-0.443141 0.172752 0)
(-0.447054 0.131926 0)
(-0.450864 0.0909093 0)
(-0.454559 0.0496904 0)
(-0.458147 0.0082722 0)
(-0.461685 -0.0333354 0)
(-0.465214 -0.0751175 0)
(-0.468709 -0.117064 0)
(-0.472141 -0.159142 0)
(-0.47546 -0.201291 0)
(-0.478604 -0.243422 0)
(-0.481526 -0.285426 0)
(-0.484267 -0.327231 0)
(-0.487081 -0.368927 0)
(-0.490613 -0.410993 0)
(-0.496037 -0.454563 0)
(-0.504935 -0.501549 0)
(-0.518612 -0.55415 0)
(-0.536595 -0.613218 0)
(-0.554638 -0.675412 0)
(-0.563487 -0.730306 0)
(-0.550163 -0.759771 0)
(-0.502627 -0.741955 0)
(-0.416561 -0.660305 0)
(-0.30108 -0.515043 0)
(-0.17933 -0.331219 0)
(-0.0805193 -0.154851 0)
(-0.0231572 -0.0304536 0)
(-0.00128082 0.0280298 0)
(0.00137182 0.0284876 0)
(-0.00539739 0.126125 0)
(-0.043053 0.250044 0)
(-0.0893706 0.339049 0)
(-0.139314 0.42466 0)
(-0.189899 0.505519 0)
(-0.238288 0.573719 0)
(-0.281432 0.622678 0)
(-0.316972 0.648879 0)
(-0.343679 0.65222 0)
(-0.361649 0.635583 0)
(-0.372188 0.60385 0)
(-0.377429 0.562628 0)
(-0.379726 0.516991 0)
(-0.381077 0.47059 0)
(-0.382766 0.425389 0)
(-0.385323 0.381945 0)
(-0.388732 0.339976 0)
(-0.392709 0.298908 0)
(-0.396931 0.258218 0)
(-0.40116 0.217566 0)
(-0.405271 0.176789 0)
(-0.409236 0.135835 0)
(-0.413078 0.094704 0)
(-0.416828 0.0534067 0)
(-0.42051 0.0119472 0)
(-0.424196 -0.0296742 0)
(-0.427937 -0.0714566 0)
(-0.431717 -0.113415 0)
(-0.435514 -0.155543 0)
(-0.439283 -0.197817 0)
(-0.442945 -0.240173 0)
(-0.446385 -0.282502 0)
(-0.449477 -0.32465 0)
(-0.452164 -0.366472 0)
(-0.454616 -0.407987 0)
(-0.457474 -0.449694 0)
(-0.46208 -0.492983 0)
(-0.4704 -0.540353 0)
(-0.484169 -0.594751 0)
(-0.502876 -0.657199 0)
(-0.521142 -0.722756 0)
(-0.52746 -0.776787 0)
(-0.506689 -0.795275 0)
(-0.446868 -0.752079 0)
(-0.347719 -0.632546 0)
(-0.225984 -0.448182 0)
(-0.112343 -0.242563 0)
(-0.0364028 -0.0761131 0)
(-0.00422455 0.0132279 0)
(0.00146142 0.0281066 0)
(-0.00454379 0.149775 0)
(-0.0403728 0.291428 0)
(-0.0846112 0.386061 0)
(-0.131518 0.473175 0)
(-0.177965 0.5527 0)
(-0.221248 0.616703 0)
(-0.258692 0.659011 0)
(-0.288463 0.677054 0)
(-0.309905 0.671962 0)
(-0.323635 0.647838 0)
(-0.331324 0.61048 0)
(-0.335194 0.565874 0)
(-0.337388 0.518887 0)
(-0.339473 0.472549 0)
(-0.342242 0.428083 0)
(-0.345832 0.385452 0)
(-0.350008 0.344053 0)
(-0.354434 0.303235 0)
(-0.358844 0.262545 0)
(-0.363099 0.221761 0)
(-0.367164 0.180816 0)
(-0.371076 0.13972 0)
(-0.374894 0.098499 0)
(-0.378662 0.0571653 0)
(-0.382405 0.0157142 0)
(-0.386191 -0.0258671 0)
(-0.390079 -0.0675897 0)
(-0.394059 -0.109487 0)
(-0.398116 -0.151575 0)
(-0.40223 -0.193861 0)
(-0.406343 -0.236328 0)
(-0.410354 -0.278915 0)
(-0.414107 -0.321493 0)
(-0.417413 -0.363858 0)
(-0.420123 -0.405784 0)
(-0.422333 -0.447225 0)
(-0.424708 -0.488744 0)
(-0.428818 -0.532113 0)
(-0.437071 -0.580629 0)
(-0.45153 -0.638066 0)
(-0.471168 -0.705077 0)
(-0.488587 -0.77347 0)
(-0.489267 -0.822031 0)
(-0.456314 -0.819418 0)
(-0.380115 -0.737006 0)
(-0.267985 -0.568459 0)
(-0.146945 -0.346009 0)
(-0.053403 -0.13755 0)
(-0.00822332 -0.00881427 0)
(0.0014748 0.026189 0)
(-0.00331621 0.171138 0)
(-0.0359864 0.330217 0)
(-0.0770421 0.429958 0)
(-0.120024 0.517678 0)
(-0.16176 0.595011 0)
(-0.199767 0.654268 0)
(-0.231791 0.689837 0)
(-0.256494 0.700156 0)
(-0.273693 0.687551 0)
(-0.284373 0.657209 0)
(-0.290358 0.615606 0)
(-0.29376 0.568835 0)
(-0.296375 0.52134 0)
(-0.299318 0.47545 0)
(-0.302977 0.431715 0)
(-0.307241 0.389663 0)
(-0.311795 0.348534 0)
(-0.316346 0.307713 0)
(-0.320726 0.266865 0)
(-0.324886 0.22588 0)
(-0.328859 0.184765 0)
(-0.332713 0.143557 0)
(-0.336519 0.102287 0)
(-0.340319 0.0609588 0)
(-0.344128 0.0195532 0)
(-0.348001 -0.0219548 0)
(-0.352003 -0.063584 0)
(-0.35613 -0.105379 0)
(-0.360365 -0.147371 0)
(-0.364705 -0.189586 0)
(-0.369119 -0.232043 0)
(-0.373548 -0.274733 0)
(-0.377874 -0.317594 0)
(-0.381911 -0.360476 0)
(-0.385407 -0.403117 0)
(-0.388138 -0.445201 0)
(-0.390153 -0.48663 0)
(-0.392206 -0.52813 0)
(-0.396208 -0.572105 0)
(-0.405072 -0.622963 0)
(-0.420956 -0.685222 0)
(-0.44147 -0.757885 0)
(-0.455937 -0.826697 0)
(-0.446334 -0.860845 0)
(-0.395706 -0.821498 0)
(-0.300782 -0.683202 0)
(-0.180778 -0.459516 0)
(-0.0736094 -0.215119 0)
(-0.0135237 -0.0398828 0)
(0.00139038 0.0222541 0)
(-0.00180358 0.189234 0)
(-0.0301649 0.365293 0)
(-0.0671368 0.469855 0)
(-0.105544 0.557571 0)
(-0.142239 0.632213 0)
(-0.175015 0.68658 0)
(-0.202042 0.715716 0)
(-0.222416 0.719056 0)
(-0.236307 0.700029 0)
(-0.244896 0.664721 0)
(-0.249982 0.620053 0)
(-0.253423 0.572007 0)
(-0.256624 0.524485 0)
(-0.260298 0.479135 0)
(-0.264551 0.435963 0)
(-0.269153 0.394225 0)
(-0.273803 0.353125 0)
(-0.278295 0.312147 0)
(-0.282553 0.271077 0)
(-0.286595 0.229894 0)
(-0.290489 0.188643 0)
(-0.294311 0.14737 0)
(-0.29813 0.106093 0)
(-0.301981 0.0648042 0)
(-0.305864 0.02347 0)
(-0.309823 -0.0179447 0)
(-0.313932 -0.0594627 0)
(-0.318187 -0.101138 0)
(-0.322565 -0.143008 0)
(-0.327069 -0.185111 0)
(-0.331686 -0.227484 0)
(-0.336386 -0.270154 0)
(-0.341103 -0.313121 0)
(-0.345706 -0.356319 0)
(-0.349977 -0.399565 0)
(-0.353607 -0.44252 0)
(-0.35631 -0.484766 0)
(-0.358135 -0.526203 0)
(-0.360044 -0.567925 0)
(-0.364457 -0.613384 0)
(-0.374824 -0.668457 0)
(-0.392833 -0.737822 0)
(-0.413294 -0.816156 0)
(-0.420846 -0.87878 0)
(-0.39461 -0.882572 0)
(-0.321481 -0.784903 0)
(-0.210274 -0.576021 0)
(-0.0954232 -0.30678 0)
(-0.0203503 -0.0816545 0)
(0.0012505 0.0158179 0)
(-0.000110067 0.203286 0)
(-0.0232148 0.395732 0)
(-0.055393 0.505079 0)
(-0.0887775 0.592478 0)
(-0.120289 0.664258 0)
(-0.148011 0.713937 0)
(-0.170516 0.737245 0)
(-0.18725 0.734551 0)
(-0.198608 0.71024 0)
(-0.20581 0.671104 0)
(-0.210494 0.624305 0)
(-0.214191 0.575569 0)
(-0.217926 0.528232 0)
(-0.222103 0.483348 0)
(-0.226662 0.440525 0)
(-0.231348 0.398877 0)
(-0.235924 0.357653 0)
(-0.240271 0.316451 0)
(-0.244384 0.275161 0)
(-0.248321 0.233816 0)
(-0.252158 0.192478 0)
(-0.255967 0.151183 0)
(-0.259809 0.109935 0)
(-0.263714 0.0687116 0)
(-0.267674 0.0274698 0)
(-0.271716 -0.013835 0)
(-0.275927 -0.0552269 0)
(-0.280312 -0.0967705 0)
(-0.284831 -0.138506 0)
(-0.289488 -0.180478 0)
(-0.294277 -0.222733 0)
(-0.299182 -0.265318 0)
(-0.304169 -0.30827 0)
(-0.309163 -0.351592 0)
(-0.314018 -0.395206 0)
(-0.318476 -0.43887 0)
(-0.32217 -0.48214 0)
(-0.324772 -0.524497 0)
(-0.326419 -0.565954 0)
(-0.328471 -0.608368 0)
(-0.334072 -0.656876 0)
(-0.347034 -0.719016 0)
(-0.367357 -0.797719 0)
(-0.384974 -0.878322 0)
(-0.379087 -0.920226 0)
(-0.329147 -0.868453 0)
(-0.23268 -0.688508 0)
(-0.116688 -0.40854 0)
(-0.0287034 -0.135279 0)
(0.00111756 0.00636884 0)
(0.00165464 0.212736 0)
(-0.0154526 0.420802 0)
(-0.0422932 0.535138 0)
(-0.0703684 0.622189 0)
(-0.0966804 0.691225 0)
(-0.119589 0.736688 0)
(-0.13803 0.754985 0)
(-0.151709 0.747301 0)
(-0.161126 0.718813 0)
(-0.167415 0.676827 0)
(-0.171957 0.62859 0)
(-0.175938 0.57951 0)
(-0.180055 0.532397 0)
(-0.184497 0.487833 0)
(-0.189131 0.445164 0)
(-0.193731 0.403454 0)
(-0.19814 0.362031 0)
(-0.20231 0.320599 0)
(-0.20628 0.279123 0)
(-0.210122 0.237664 0)
(-0.213911 0.196283 0)
(-0.217708 0.155002 0)
(-0.221566 0.11381 0)
(-0.225516 0.0726763 0)
(-0.229544 0.0315481 0)
(-0.233658 -0.00962696 0)
(-0.237968 -0.0508734 0)
(-0.242488 -0.0922682 0)
(-0.247159 -0.133855 0)
(-0.251985 -0.175684 0)
(-0.256956 -0.217805 0)
(-0.262063 -0.260273 0)
(-0.267286 -0.303145 0)
(-0.272582 -0.346468 0)
(-0.277866 -0.390243 0)
(-0.282962 -0.434355 0)
(-0.287564 -0.478471 0)
(-0.291245 -0.521999 0)
(-0.293679 -0.564352 0)
(-0.295243 -0.605943 0)
(-0.297975 -0.650094 0)
(-0.305916 -0.704444 0)
(-0.322523 -0.777482 0)
(-0.343833 -0.865712 0)
(-0.352693 -0.93719 0)
(-0.324588 -0.93146 0)
(-0.246477 -0.79111 0)
(-0.13535 -0.51535 0)
(-0.038193 -0.200528 0)
(0.000969134 -0.00656255 0)
(0.00338458 0.217271 0)
(-0.00718728 0.439917 0)
(-0.0282858 0.559688 0)
(-0.0508798 0.646617 0)
(-0.0720533 0.713259 0)
(-0.0904014 0.755178 0)
(-0.105173 0.769412 0)
(-0.116255 0.757817 0)
(-0.124147 0.726178 0)
(-0.129805 0.682151 0)
(-0.134305 0.632971 0)
(-0.138497 0.583721 0)
(-0.142817 0.536779 0)
(-0.147321 0.492382 0)
(-0.151861 0.449718 0)
(-0.156272 0.407859 0)
(-0.160465 0.366219 0)
(-0.164444 0.324584 0)
(-0.168269 0.282967 0)
(-0.172015 0.24144 0)
(-0.175748 0.200055 0)
(-0.179518 0.158817 0)
(-0.183373 0.117705 0)
(-0.18735 0.0766824 0)
(-0.191431 0.0356927 0)
(-0.195602 -0.00532593 0)
(-0.200001 -0.0464008 0)
(-0.204663 -0.0876213 0)
(-0.2095 -0.129039 0)
(-0.214515 -0.170705 0)
(-0.219696 -0.212675 0)
(-0.225033 -0.255006 0)
(-0.230508 -0.297763 0)
(-0.236098 -0.341018 0)
(-0.241749 -0.384823 0)
(-0.247352 -0.429161 0)
(-0.252689 -0.473842 0)
(-0.257391 -0.518385 0)
(-0.260983 -0.562023 0)
(-0.263232 -0.604245 0)
(-0.265014 -0.646467 0)
(-0.269417 -0.694629 0)
(-0.281226 -0.759409 0)
(-0.301633 -0.846906 0)
(-0.319386 -0.937862 0)
(-0.309836 -0.974001 0)
(-0.251416 -0.87971 0)
(-0.149927 -0.622076 0)
(-0.0480879 -0.275639 0)
(0.000664837 -0.0234213 0)
(0.00493825 0.216705 0)
(0.00127599 0.452735 0)
(-0.0137704 0.578472 0)
(-0.0307928 0.665748 0)
(-0.046921 0.730524 0)
(-0.060934 0.769707 0)
(-0.0723458 0.780897 0)
(-0.081156 0.766457 0)
(-0.0877877 0.7326 0)
(-0.0929574 0.687195 0)
(-0.0974162 0.637413 0)
(-0.101708 0.588063 0)
(-0.106066 0.541199 0)
(-0.110473 0.496833 0)
(-0.114805 0.454077 0)
(-0.118959 0.412034 0)
(-0.122906 0.370192 0)
(-0.12668 0.328397 0)
(-0.13035 0.286686 0)
(-0.133985 0.245132 0)
(-0.137641 0.203774 0)
(-0.141362 0.162605 0)
(-0.145192 0.121597 0)
(-0.149173 0.0807093 0)
(-0.153291 0.0398883 0)
(-0.157501 -0.00093632 0)
(-0.161975 -0.0418095 0)
(-0.16678 -0.0828201 0)
(-0.171795 -0.124037 0)
(-0.177018 -0.165515 0)
(-0.182437 -0.207309 0)
(-0.188039 -0.24948 0)
(-0.193808 -0.292095 0)
(-0.199723 -0.335239 0)
(-0.20575 -0.378994 0)
(-0.211817 -0.42341 0)
(-0.217778 -0.468416 0)
(-0.223356 -0.513688 0)
(-0.228111 -0.558527 0)
(-0.231563 -0.602021 0)
(-0.233759 -0.644157 0)
(-0.236485 -0.688541 0)
(-0.244182 -0.745227 0)
(-0.261229 -0.826586 0)
(-0.282812 -0.9272 0)
(-0.287541 -0.998007 0)
(-0.248269 -0.952057 0)
(-0.159682 -0.724221 0)
(-0.0575546 -0.357851 0)
(-4.98771e-06 -0.0446332 0)
(0.00616071 0.211266 0)
(0.00957414 0.458814 0)
(0.000928364 0.591397 0)
(-0.0105077 0.679591 0)
(-0.02169 0.743174 0)
(-0.0315434 0.780504 0)
(-0.0398095 0.789697 0)
(-0.0465496 0.773446 0)
(-0.0520611 0.738217 0)
(-0.056788 0.691986 0)
(-0.0611554 0.641843 0)
(-0.0654325 0.592404 0)
(-0.0696951 0.545518 0)
(-0.0738901 0.501076 0)
(-0.0779346 0.458168 0)
(-0.0817859 0.415939 0)
(-0.0854589 0.373929 0)
(-0.0890081 0.332021 0)
(-0.0925009 0.290261 0)
(-0.095999 0.248717 0)
(-0.0995517 0.207415 0)
(-0.103198 0.166343 0)