/*--------------------------------*- C++ -*----------------------------------*\
  =========                 |
  \\      /  F ield         | OpenFOAM: The Open Source CFD Toolbox
   \\    /   O peration     | Website:  https://openfoam.org
    \\  /    A nd           | Version:  7
     \\/     M anipulation  |
\*---------------------------------------------------------------------------*/
FoamFile
{
    version     2.0;
    format      ascii;
    class       volScalarField;
    location    "1600";
    object      p;
}
// * * * * * * * * * * * * * * * * * * * * * * * * * * * * * * * * * * * * * //

dimensions      [0 2 -2 0 0 0 0];

internalField   nonuniform List<scalar> 
2500
(
1.14863e-07
7.09831e-05
-8.94705e-06
-0.000307763
-0.000782156
-0.0013697
-0.0020302
-0.00275913
-0.00358218
-0.00454002
-0.00567272
-0.00701014
-0.00856922
-0.0103497
-0.0123281
-0.0144502
-0.0166241
-0.0187181
-0.0205673
-0.0219895
-0.0228102
-0.0228899
-0.0221534
-0.0206171
-0.018407
-0.0157492
-0.0129655
-0.0104731
-0.00873376
-0.00818526
-0.00916033
-0.0117955
-0.0159783
-0.021413
-0.0276401
-0.0340978
-0.0402577
-0.0457189
-0.0502505
-0.0537777
-0.0563505
-0.0581039
-0.0592124
-0.0598521
-0.0601749
-0.0602969
-0.0602959
-0.0602145
-0.0600752
-0.0599361
-6.91366e-05
3.67143e-06
-8.01374e-05
-0.000376594
-0.000828983
-0.00137315
-0.00197396
-0.00263286
-0.00337843
-0.00425099
-0.00528936
-0.00652349
-0.00797406
-0.00964884
-0.0115362
-0.0135993
-0.0157673
-0.0179287
-0.0199307
-0.0215896
-0.022713
-0.0231311
-0.0227301
-0.0214859
-0.0194934
-0.0169698
-0.0142523
-0.0117762
-0.0100222
-0.00944704
-0.0103993
-0.0130378
-0.0172783
-0.0227711
-0.029014
-0.0354588
-0.0415513
-0.0468506
-0.0511178
-0.054326
-0.0565932
-0.0581009
-0.0590427
-0.0595912
-0.0598826
-0.0600143
-0.0600481
-0.0600135
-0.059912
-0.0597803
-1.91663e-05
4.95248e-05
-5.73912e-05
-0.000379863
-0.000832275
-0.00133887
-0.00186946
-0.00243685
-0.00308209
-0.00385275
-0.00479291
-0.00594294
-0.00734088
-0.00902115
-0.0110037
-0.0132775
-0.0157822
-0.0183961
-0.0209369
-0.0231781
-0.0248806
-0.0258305
-0.0258764
-0.0249669
-0.0231946
-0.0207871
-0.0180813
-0.0155106
-0.0135677
-0.0127332
-0.0133887
-0.0157319
-0.0197179
-0.0250447
-0.0312033
-0.0375725
-0.0435744
-0.048767
-0.05287
-0.0558178
-0.057741
-0.058885
-0.0595035
-0.0598012
-0.0599226
-0.0599574
-0.0599522
-0.0599166
-0.0598207
-0.0596764
0.000228029
0.000266092
0.000101649
-0.000279657
-0.00075546
-0.00123679
-0.00170269
-0.00218527
-0.00274558
-0.00345467
-0.00438591
-0.00561877
-0.00723809
-0.00932086
-0.01191
-0.0149853
-0.0184437
-0.0220972
-0.0256895
-0.0289302
-0.0315352
-0.0332648
-0.0339539
-0.0335392
-0.0320931
-0.0298181
-0.0270258
-0.0241377
-0.0216492
-0.0200669
-0.0198275
-0.0212108
-0.0242656
-0.0287786
-0.0342994
-0.0402246
-0.045932
-0.0509026
-0.0548413
-0.0576585
-0.0594054
-0.0602939
-0.0606052
-0.0605993
-0.0604607
-0.0602991
-0.0601649
-0.060059
-0.0599289
-0.0597641
0.000707308
0.0006772
0.000418018
-4.41587e-05
-0.00055537
-0.00102927
-0.00146035
-0.00190857
-0.00247464
-0.00328048
-0.00446312
-0.00617037
-0.00854151
-0.0116721
-0.0155765
-0.020164
-0.0252382
-0.0305182
-0.0356735
-0.0403636
-0.0442738
-0.0471458
-0.048802
-0.0491587
-0.0482453
-0.046206
-0.0433064
-0.039933
-0.0365576
-0.0336945
-0.0318358
-0.0313701
-0.0324991
-0.0351789
-0.0391092
-0.0437847
-0.0486054
-0.0530105
-0.0566003
-0.0591876
-0.0608063
-0.0616126
-0.0617979
-0.0616126
-0.0612757
-0.0609304
-0.0606504
-0.0604488
-0.0602725
-0.0600956
0.00146245
0.00132843
0.000949053
0.000397433
-0.000168729
-0.000675251
-0.00114679
-0.00169618
-0.00249264
-0.00374233
-0.00567086
-0.00849231
-0.0123624
-0.0173321
-0.0233217
-0.0301233
-0.0374274
-0.0448623
-0.0520352
-0.0585663
-0.0641172
-0.0684175
-0.0712807
-0.0726079
-0.0723953
-0.0707273
-0.0678039
-0.063946
-0.0595598
-0.0551205
-0.0511321
-0.0480659
-0.0462873
-0.0459818
-0.0471035
-0.049369
-0.0523153
-0.055413
-0.0581951
-0.0603518
-0.061763
-0.0624774
-0.0626591
-0.0624709
-0.0620843
-0.0616585
-0.0612927
-0.0610243
-0.060819
-0.0606475
0.00253192
0.00226911
0.00176033
0.00110881
0.000451874
-0.000167361
-0.000837009
-0.00175271
-0.00318391
-0.00544069
-0.008825
-0.0135661
-0.019761
-0.027343
-0.0360874
-0.0456459
-0.0555941
-0.0654789
-0.0748587
-0.0833327
-0.0905654
-0.0963022
-0.100371
-0.102679
-0.103221
-0.102049
-0.0992915
-0.0951793
-0.0900148
-0.0841727
-0.0780856
-0.072219
-0.0670298
-0.0629077
-0.060105
-0.0586786
-0.0584698
-0.0591398
-0.0602614
-0.0614327
-0.0623659
-0.0629218
-0.0630991
-0.0629859
-0.0626862
-0.0623112
-0.0619605
-0.0616917
-0.061496
-0.0613508
0.00392211
0.00352317
0.00288414
0.00211044
0.00129519
0.000410679
-0.000728366
-0.00243109
-0.00508254
-0.00907677
-0.0147294
-0.0221967
-0.0314318
-0.0421903
-0.0540732
-0.066587
-0.0792046
-0.0914165
-0.102767
-0.112879
-0.121465
-0.128327
-0.133338
-0.136437
-0.137641
-0.137015
-0.134626
-0.13062
-0.125181
-0.118543
-0.110991
-0.102875
-0.0946084
-0.0866477
-0.0794539
-0.0734268
-0.0688304
-0.0657283
-0.0639637
-0.0632042
-0.0630455
-0.0631269
-0.0632038
-0.0631695
-0.0630202
-0.0627972
-0.0625634
-0.0623724
-0.0622323
-0.0621316
0.00557829
0.00505013
0.00427587
0.00333748
0.0022394
0.00084342
-0.00116261
-0.00421465
-0.00879006
-0.0152972
-0.0239658
-0.0347815
-0.047483
-0.0616126
-0.0765928
-0.0918066
-0.106666
-0.120659
-0.133378
-0.144521
-0.153896
-0.161389
-0.166943
-0.170537
-0.17222
-0.172085
-0.170178
-0.166576
-0.161368
-0.154652
-0.146556
-0.13725
-0.126981
-0.116096
-0.10506
-0.0944441
-0.0848666
-0.0768875
-0.0708684
-0.0668597
-0.0645832
-0.0635411
-0.0631997
-0.0631446
-0.0631452
-0.0631257
-0.063081
-0.0630342
-0.0629891
-0.0629441
0.00735007
0.00670687
0.00578623
0.00460123
0.00302312
0.000773058
-0.00260101
-0.00763995
-0.0148434
-0.0245285
-0.0367317
-0.0511872
-0.0673793
-0.0846371
-0.10224
-0.119508
-0.135866
-0.150876
-0.164235
-0.175763
-0.185374
-0.193045
-0.198785
-0.20261
-0.204584
-0.204831
-0.203387
-0.200295
-0.195589
-0.189285
-0.181395
-0.171934
-0.160949
-0.148573
-0.135078
-0.120943
-0.106878
-0.0937753
-0.0825559
-0.0739273
-0.0681396
-0.0648922
-0.0634835
-0.0631221
-0.0631974
-0.0633789
-0.063559
-0.063697
-0.063772
-0.0637866
0.00897946
0.00824023
0.00713772
0.00557313
0.00324937
-0.000266567
-0.00555004
-0.0131834
-0.0235843
-0.0368659
-0.0527826
-0.0707741
-0.0900752
-0.10985
-0.129312
-0.147811
-0.164872
-0.180191
-0.193605
-0.205057
-0.214553
-0.22214
-0.227866
-0.231769
-0.233913
-0.234426
-0.233341
-0.230689
-0.226488
-0.220729
-0.213375
-0.204359
-0.193593
-0.181011
-0.16663
-0.150648
-0.133559
-0.116231
-0.0998734
-0.0858234
-0.0751528
-0.0682549
-0.0646855
-0.0634169
-0.0633445
-0.0636877
-0.0640865
-0.0644221
-0.0646272
-0.064702
0.010113
0.00928263
0.00793115
0.00580968
0.0024336
-0.00277343
-0.0104594
-0.0211532
-0.0350784
-0.0520502
-0.0714937
-0.0925605
-0.114292
-0.13578
-0.156277
-0.175254
-0.192396
-0.207557
-0.22071
-0.231888
-0.241159
-0.248597
-0.254266
-0.258205
-0.260467
-0.261163
-0.260317
-0.257963
-0.254119
-0.248786
-0.24193
-0.233472
-0.223287
-0.211209
-0.197069
-0.180778
-0.162459
-0.142624
-0.122327
-0.103147
-0.0868777
-0.0749353
-0.0677369
-0.0645186
-0.0638025
-0.0641688
-0.0647644
-0.0652923
-0.0656294
-0.0657675
0.0103219
0.00938619
0.00769459
0.00481738
8.67921e-05
-0.00717999
-0.017626
-0.0316224
-0.0491029
-0.0695318
-0.0920081
-0.115454
-0.138816
-0.161222
-0.182063
-0.200988
-0.217858
-0.23267
-0.245488
-0.256401
-0.265493
-0.272839
-0.278494
-0.282489
-0.284857
-0.28569
-0.284998
-0.282815
-0.279166
-0.274066
-0.267505
-0.259436
-0.249759
-0.238311
-0.224868
-0.209172
-0.191032
-0.170503
-0.148136
-0.125216
-0.103757
-0.0860519
-0.0737792
-0.0671634
-0.0648864
-0.0649313
-0.065676
-0.0663882
-0.0668656
-0.0670789
0.00916144
0.00809497
0.00596151
0.00214125
-0.00419024
-0.013765
-0.0271331
-0.044416
-0.0651984
-0.0885889
-0.113413
-0.138461
-0.162697
-0.185385
-0.206106
-0.224704
-0.241189
-0.255653
-0.268209
-0.278956
-0.28797
-0.295309
-0.301011
-0.305093
-0.307569
-0.308517
-0.307934
-0.30585
-0.302291
-0.29728
-0.290827
-0.28292
-0.273512
-0.262496
-0.249688
-0.234815
-0.217544
-0.197589
-0.174942
-0.150232
-0.125065
-0.101998
-0.0838269
-0.0723026
-0.0671154
-0.0661408
-0.0668721
-0.0677767
-0.0684189
-0.0687327
0.00625496
0.00502534
0.00235773
-0.00254737
-0.010628
-0.0225988
-0.038836
-0.0591488
-0.0827578
-0.108457
-0.134887
-0.160816
-0.185323
-0.207867
-0.228234
-0.246427
-0.26256
-0.27677
-0.289175
-0.299861
-0.308881
-0.316272
-0.322056
-0.326238
-0.32882
-0.329868
-0.329376
-0.327365
-0.323857
-0.318874
-0.312433
-0.304544
-0.295199
-0.284357
-0.271915
-0.257678
-0.241331
-0.222465
-0.200695
-0.175977
-0.149101
-0.122138
-0.0983152
-0.080863
-0.07123
-0.0681084
-0.0684253
-0.0695191
-0.070362
-0.0708187
0.00136327
-6.01326e-05
-0.00332561
-0.00938725
-0.0192446
-0.0335317
-0.0523909
-0.0752941
-0.101124
-0.128433
-0.155781
-0.182008
-0.206375
-0.228549
-0.248491
-0.266316
-0.282187
-0.296245
-0.30859
-0.319281
-0.328348
-0.33581
-0.341679
-0.345952
-0.348627
-0.349761
-0.349352
-0.347411
-0.343954
-0.338997
-0.332556
-0.324643
-0.315271
-0.304438
-0.292116
-0.27821
-0.262517
-0.244679
-0.224194
-0.200582
-0.173805
-0.144959
-0.116813
-0.0933821
-0.0780585
-0.0713589
-0.0705005
-0.071681
-0.0727721
-0.0734278
-0.00556666
-0.00720498
-0.0110915
-0.0183018
-0.0298442
-0.046222
-0.0673127
-0.0922616
-0.119669
-0.147938
-0.175637
-0.20175
-0.22574
-0.247461
-0.267
-0.284533
-0.30023
-0.31421
-0.326544
-0.337263
-0.346379
-0.353901
-0.359836
-0.36418
-0.366928
-0.368133
-0.367798
-0.365928
-0.362533
-0.357623
-0.351208
-0.343297
-0.333901
-0.323035
-0.310709
-0.296909
-0.281552
-0.264419
-0.245092
-0.222956
-0.197431
-0.168588
-0.138094
-0.109717
-0.0882353
-0.0765688
-0.0734164
-0.0743646
-0.0757629
-0.0766665
-0.0143872
-0.0162474
-0.0207349
-0.0290124
-0.04205
-0.0601899
-0.0830425
-0.109465
-0.137849
-0.166531
-0.194165
-0.219909
-0.243415
-0.264684
-0.283879
-0.301194
-0.316777
-0.330716
-0.343049
-0.353789
-0.362936
-0.370494
-0.37647
-0.380863
-0.383665
-0.384925
-0.384655
-0.382851
-0.379523
-0.374678
-0.36832
-0.360451
-0.351079
-0.340214
-0.327877
-0.314091
-0.298859
-0.282107
-0.263583
-0.242774
-0.218918
-0.191366
-0.160511
-0.129004
-0.101918
-0.0843823
-0.0776329
-0.0777308
-0.0794582
-0.0806468
-0.0247706
-0.0268438
-0.0318747
-0.0410819
-0.0553603
-0.0748809
-0.0990087
-0.126368
-0.155218
-0.183902
-0.211196
-0.236437
-0.259437
-0.280294
-0.299206
-0.316354
-0.331854
-0.345758
-0.358082
-0.368823
-0.377977
-0.385548
-0.391545
-0.395968
-0.39881
-0.400111
-0.399895
-0.39815
-0.394888
-0.390113
-0.383828
-0.376033
-0.36673
-0.355922
-0.343624
-0.329864
-0.314685
-0.298106
-0.280049
-0.2602
-0.237897
-0.212193
-0.182479
-0.149892
-0.11866
-0.0951768
-0.0836562
-0.0820101
-0.0839637
-0.0854816
-0.0362552
-0.0385178
-0.0440077
-0.0539741
-0.0692102
-0.0897244
-0.114674
-0.142514
-0.171434
-0.199836
-0.226634
-0.251326
-0.273842
-0.294338
-0.313016
-0.330027
-0.34545
-0.359312
-0.371609
-0.382332
-0.391475
-0.399042
-0.405045
-0.409486
-0.412355
-0.413688
-0.413515
-0.411822
-0.408618
-0.40391
-0.397702
-0.389994
-0.380786
-0.370077
-0.357874
-0.344197
-0.32909
-0.312617
-0.294812
-0.275568
-0.254457
-0.230588
-0.202827
-0.170922
-0.137494
-0.108896
-0.0919146
-0.0874959
-0.0893698
-0.0912904
-0.0483051
-0.0507208
-0.0565704
-0.0671146
-0.0830287
-0.10418
-0.129565
-0.157525
-0.186238
-0.214187
-0.240423
-0.264573
-0.286649
-0.306832
-0.325308
-0.342195
-0.357541
-0.371348
-0.383602
-0.394292
-0.403412
-0.410967
-0.416966
-0.421417
-0.424307
-0.425662
-0.425525
-0.423875
-0.420722
-0.416073
-0.409936
-0.402313
-0.393207
-0.382617
-0.370546
-0.357006
-0.342027
-0.325677
-0.308045
-0.28917
-0.268873
-0.246521
-0.220906
-0.19085
-0.157175
-0.125011
-0.102606
-0.0944681
-0.0957692
-0.0981856
-0.0603702
-0.062892
-0.0689973
-0.0799449
-0.0962834
-0.117768
-0.143282
-0.171105
-0.199437
-0.226852
-0.252521
-0.276167
-0.297854
-0.317765
-0.336062
-0.352831
-0.368094
-0.381837
-0.39404
-0.404689
-0.413781
-0.421318
-0.427311
-0.431766
-0.434673
-0.436043
-0.435935
-0.434319
-0.431208
-0.42661
-0.420534
-0.412988
-0.403978
-0.393508
-0.381582
-0.368207
-0.353406
-0.337231
-0.319778
-0.301165
-0.281409
-0.260182
-0.236505
-0.208827
-0.176466
-0.142622
-0.115582
-0.103119
-0.10327
-0.106224
-0.0719356
-0.0745125
-0.0807684
-0.0919623
-0.108509
-0.130086
-0.155504
-0.183024
-0.210887
-0.237753
-0.26289
-0.286088
-0.307436
-0.32711
-0.345245
-0.361901
-0.377078
-0.390754
-0.402903
-0.413512
-0.422576
-0.430096
-0.436081
-0.440539
-0.443458
-0.444838
-0.444754
-0.443164
-0.440085
-0.435527
-0.429502
-0.42202
-0.413092
-0.40273
-0.390943
-0.37774
-0.36314
-0.347182
-0.329951
-0.311584
-0.292219
-0.271792
-0.249679
-0.224405
-0.194347
-0.160639
-0.130329
-0.11346
-0.11193
-0.115345
-0.0825823
-0.0851203
-0.0914431
-0.102745
-0.119325
-0.140811
-0.165983
-0.193108
-0.220477
-0.246826
-0.27149
-0.294303
-0.315363
-0.334832
-0.352822
-0.369372
-0.384467
-0.398078
-0.410177
-0.420751
-0.429792
-0.437299
-0.443278
-0.447738
-0.450667
-0.452053
-0.451986
-0.450417
-0.447361
-0.442831
-0.436842
-0.429407
-0.420545
-0.410272
-0.398606
-0.385562
-0.371161
-0.355438
-0.338463
-0.320368
-0.30134
-0.281499
-0.260575
-0.237433
-0.210105
-0.177972
-0.146035
-0.12525
-0.121649
-0.125308
-0.0919927
-0.0943381
-0.100661
-0.111964
-0.128437
-0.149702
-0.174534
-0.201229
-0.228126
-0.254017
-0.278282
-0.300776
-0.321597
-0.340892
-0.358756
-0.37521
-0.390233
-0.403789
-0.41585
-0.426398
-0.435425
-0.442926
-0.448904
-0.453367
-0.456304
-0.457697
-0.457641
-0.456085
-0.453042
-0.448527
-0.442558
-0.435152
-0.426332
-0.416124
-0.404551
-0.39164
-0.377418
-0.361921
-0.345213
-0.327413
-0.308717
-0.289349
-0.26932
-0.247923
-0.22331
-0.193688
-0.16173
-0.137958
-0.132086
-0.135689
-0.0999184
-0.101935
-0.108151
-0.119376
-0.135642
-0.156589
-0.18103
-0.207297
-0.233772
-0.259281
-0.283226
-0.305469
-0.326099
-0.345254
-0.363012
-0.379388
-0.394354
-0.407871
-0.419908
-0.430445
-0.43947
-0.446976
-0.452961
-0.45743
-0.460377
-0.461782
-0.461731
-0.460182
-0.457141
-0.452627
-0.446659
-0.439258
-0.430455
-0.420279
-0.408765
-0.39595
-0.38187
-0.366569
-0.350111
-0.332607
-0.314247
-0.2953
-0.275966
-0.255938
-0.233759
-0.207081
-0.176432
-0.150835
-0.142695
-0.14595
-0.106193
-0.107794
-0.113758
-0.124831
-0.14082
-0.16139
-0.185413
-0.211271
-0.237381
-0.262587
-0.286292
-0.308347
-0.328834
-0.347879
-0.365557
-0.381876
-0.396805
-0.410304
-0.422337
-0.432881
-0.441921
-0.449445
-0.455449
-0.459933
-0.462893
-0.464308
-0.46426
-0.462716
-0.459667
-0.45514
-0.449154
-0.441735
-0.432916
-0.422736
-0.41124
-0.398475
-0.384487
-0.369333
-0.353082
-0.335846
-0.317809
-0.299252
-0.280485
-0.261517
-0.241376
-0.217678
-0.189271
-0.163035
-0.152841
-0.155519
-0.110749
-0.111875
-0.117441
-0.128268
-0.143919
-0.164059
-0.18764
-0.213106
-0.238908
-0.263892
-0.287442
-0.309386
-0.329787
-0.348765
-0.366391
-0.382677
-0.397594
-0.411097
-0.423148
-0.433719
-0.442791
-0.450348
-0.456379
-0.460881
-0.463848
-0.465268
-0.465216
-0.463676
-0.460612
-0.456057
-0.450034
-0.442571
-0.433706
-0.423486
-0.411965
-0.399198
-0.385246
-0.370176
-0.354069
-0.337044
-0.319287
-0.301082
-0.282796
-0.264654
-0.246147
-0.225197
-0.199557
-0.173739
-0.161893
-0.163855
-0.113613
-0.114235
-0.119265
-0.129734
-0.144982
-0.164637
-0.187737
-0.212805
-0.238329
-0.263146
-0.286608
-0.308503
-0.328873
-0.347826
-0.365439
-0.381727
-0.396664
-0.410204
-0.422308
-0.43294
-0.442077
-0.449697
-0.455788
-0.460339
-0.463343
-0.464786
-0.46471
-0.463139
-0.460024
-0.455403
-0.449303
-0.441757
-0.43281
-0.42251
-0.410917
-0.398096
-0.384116
-0.36906
-0.353022
-0.336131
-0.318583
-0.300669
-0.282786
-0.265296
-0.248062
-0.22949
-0.206796
-0.182236
-0.169277
-0.170477
-0.114896
-0.115013
-0.119388
-0.129357
-0.144116
-0.163216
-0.185779
-0.210421
-0.23567
-0.260354
-0.283778
-0.305681
-0.326071
-0.345045
-0.362681
-0.379003
-0.393989
-0.407598
-0.419783
-0.430506
-0.439734
-0.447444
-0.453615
-0.458232
-0.461288
-0.462769
-0.462695
-0.461104
-0.45794
-0.453242
-0.447045
-0.43938
-0.430295
-0.419848
-0.408107
-0.395151
-0.381068
-0.365946
-0.349891
-0.333044
-0.315614
-0.297906
-0.28034
-0.263358
-0.247101
-0.230489
-0.210667
-0.187956
-0.174498
-0.174966
-0.114772
-0.114422
-0.118043
-0.127341
-0.141489
-0.159938
-0.181878
-0.206028
-0.230972
-0.255528
-0.278945
-0.300903
-0.321362
-0.340402
-0.358103
-0.374496
-0.389568
-0.403279
-0.415582
-0.426429
-0.435784
-0.443614
-0.449892
-0.4546
-0.457723
-0.45925
-0.459183
-0.457572
-0.454349
-0.449559
-0.44324
-0.435427
-0.42617
-0.415532
-0.40359
-0.390428
-0.376141
-0.360837
-0.344643
-0.327725
-0.310306
-0.292699
-0.275347
-0.258745
-0.243228
-0.228168
-0.210979
-0.190466
-0.17713
-0.176958
-0.11347
-0.112725
-0.11553
-0.123962
-0.137328
-0.154993
-0.176185
-0.199732
-0.224291
-0.24868
-0.272093
-0.294134
-0.314708
-0.333863
-0.351674
-0.368182
-0.383383
-0.397239
-0.4097
-0.420715
-0.430235
-0.438223
-0.444642
-0.449468
-0.452681
-0.454265
-0.454212
-0.45258
-0.449293
-0.444395
-0.43793
-0.429935
-0.420461
-0.409578
-0.397367
-0.383923
-0.369349
-0.353765
-0.337315
-0.320182
-0.302619
-0.284977
-0.26772
-0.251371
-0.236394
-0.222517
-0.207633
-0.189458
-0.176804
-0.176128
-0.111255
-0.110213
-0.112188
-0.119556
-0.131925
-0.148624
-0.168896
-0.191674
-0.21571
-0.23984
-0.263208
-0.285336
-0.306057
-0.325376
-0.343352
-0.360028
-0.375407
-0.389457
-0.402125
-0.413353
-0.423086
-0.431274
-0.437874
-0.442852
-0.446181
-0.447843
-0.447822
-0.446167
-0.442816
-0.4378
-0.431165
-0.422954
-0.41322
-0.402035
-0.389486
-0.375674
-0.360713
-0.344736
-0.327902
-0.31042
-0.292569
-0.274732
-0.257415
-0.241174
-0.226557
-0.213539
-0.200589
-0.184726
-0.173196
-0.172178
-0.108405
-0.10718
-0.108362
-0.114498
-0.12562
-0.14112
-0.16025
-0.182037
-0.205346
-0.229059
-0.252287
-0.27447
-0.295354
-0.314883
-0.333083
-0.349991
-0.365611
-0.379913
-0.392846
-0.404344
-0.414342
-0.422781
-0.429608
-0.434778
-0.438259
-0.440025
-0.440056
-0.438387
-0.434974
-0.429831
-0.423008
-0.41455
-0.404512
-0.392968
-0.380009
-0.365741
-0.350288
-0.333794
-0.316439
-0.298455
-0.280155
-0.261964
-0.24443
-0.228148
-0.213713
-0.201254
-0.189858
-0.176151
-0.166021
-0.164828
-0.105188
-0.103893
-0.104371
-0.109173
-0.118795
-0.132814
-0.150523
-0.171039
-0.193349
-0.216416
-0.239344
-0.261501
-0.282537
-0.302311
-0.320801
-0.338017
-0.353956
-0.368587
-0.381855
-0.393691
-0.404018
-0.412768
-0.419875
-0.425288
-0.428961
-0.430864
-0.430973
-0.429305
-0.425837
-0.420565
-0.413538
-0.404804
-0.39442
-0.382461
-0.369019
-0.354205
-0.33815
-0.321013
-0.30299
-0.284344
-0.265427
-0.246708
-0.228789
-0.212314
-0.197918
-0.185736
-0.175498
-0.163691
-0.155033
-0.153806
-0.101839
-0.100572
-0.100479
-0.103935
-0.111843
-0.124073
-0.14003
-0.158933
-0.179905
-0.20202
-0.224413
-0.246401
-0.267536
-0.287576
-0.306422
-0.324035
-0.340391
-0.355448
-0.369144
-0.381401
-0.392136
-0.401268
-0.408721
-0.414432
-0.418348
-0.42043
-0.420647
-0.419005
-0.415493
-0.410093
-0.402851
-0.393818
-0.38305
-0.37062
-0.356622
-0.34117
-0.324403
-0.306491
-0.287655
-0.268186
-0.248481
-0.229061
-0.210584
-0.193748
-0.179245
-0.167133
-0.157639
-0.147388
-0.140043
-0.138854
-0.0985453
-0.0973739
-0.0968726
-0.0990756
-0.105143
-0.115283
-0.129113
-0.146003
-0.165232
-0.186015
-0.20756
-0.229164
-0.250291
-0.270586
-0.289845
-0.307957
-0.324848
-0.340452
-0.354692
-0.367478
-0.378718
-0.38832
-0.396198
-0.402277
-0.406495
-0.408805
-0.409171
-0.407583
-0.404047
-0.398526
-0.391064
-0.381712
-0.370524
-0.357571
-0.342948
-0.326769
-0.309181
-0.290368
-0.270574
-0.250127
-0.22947
-0.209182
-0.189982
-0.172623
-0.15783
-0.145651
-0.13648
-0.127364
-0.120951
-0.119742
-0.0954359
-0.0944007
-0.0936605
-0.0947965
-0.0990153
-0.106823
-0.118135
-0.132559
-0.149576
-0.16858
-0.188889
-0.20982
-0.230767
-0.251261
-0.270971
-0.289682
-0.307244
-0.323543
-0.338471
-0.351922
-0.363789
-0.373969
-0.382366
-0.388896
-0.393488
-0.396085
-0.396649
-0.395155
-0.391618
-0.385991
-0.37831
-0.368625
-0.356987
-0.343466
-0.328153
-0.311166
-0.292658
-0.272828
-0.251946
-0.23038
-0.208623
-0.187318
-0.167243
-0.1492
-0.133942
-0.121524
-0.112286
-0.103805
-0.0977456
-0.0962346
-0.0925888
-0.0917081
-0.0908825
-0.0911975
-0.0936867
-0.0990203
-0.107448
-0.118922
-0.13321
-0.14993
-0.168554
-0.188454
-0.208984
-0.229565
-0.249728
-0.269123
-0.287496
-0.304655
-0.320443
-0.334722
-0.347367
-0.358258
-0.367291
-0.374372
-0.379422
-0.38238
-0.383198
-0.381847
-0.37834
-0.372629
-0.364737
-0.354712
-0.342605
-0.32848
-0.312426
-0.294564
-0.275055
-0.254114
-0.23204
-0.209241
-0.186267
-0.163819
-0.142736
-0.123858
-0.107956
-0.095042
-0.0854124
-0.0769385
-0.0704785
-0.0679906
-0.0900364
-0.0893185
-0.0885302
-0.0882829
-0.0892582
-0.0920992
-0.0973515
-0.105401
-0.116415
-0.130313
-0.146763
-0.165226
-0.185046
-0.205546
-0.226114
-0.246249
-0.265559
-0.283746
-0.300581
-0.315875
-0.329471
-0.341232
-0.351039
-0.35879
-0.3644
-0.367803
-0.368946
-0.367797
-0.364358
-0.358594
-0.350511
-0.340153
-0.32757
-0.312822
-0.295998
-0.277221
-0.256661
-0.234552
-0.211222
-0.18712
-0.162849
-0.139168
-0.116964
-0.0971016
-0.0803446
-0.0666268
-0.05629
-0.0470331
-0.0393518
-0.0346097
-0.08777
-0.0872278
-0.0865671
-0.0859814
-0.0856914
-0.0861271
-0.0880256
-0.092246
-0.0994684
-0.11001
-0.123792
-0.140398
-0.159181
-0.179385
-0.200261
-0.221143
-0.241481
-0.260848
-0.278911
-0.295412
-0.310147
-0.322951
-0.333688
-0.342246
-0.348534
-0.35248
-0.354031
-0.353152
-0.349836
-0.344062
-0.335822
-0.325155
-0.31211
-0.296749
-0.279159
-0.259468
-0.237856
-0.214576
-0.189983
-0.164566
-0.138971
-0.114001
-0.0905705
-0.0695512
-0.0516787
-0.0368082
-0.0253885
-0.0144186
-0.00500406
0.0039669
-0.0857328
-0.0853964
-0.0849333
-0.0841608
-0.0828066
-0.0809739
-0.0794685
-0.0795927
-0.0826083
-0.0893281
-0.0999956
-0.114352
-0.13178
-0.151455
-0.1725
-0.194084
-0.215492
-0.236143
-0.255584
-0.273465
-0.289519
-0.303541
-0.31537
-0.324879
-0.33197
-0.33657
-0.338624
-0.338095
-0.334971
-0.329248
-0.320904
-0.309977
-0.296519
-0.280592
-0.262289
-0.241741
-0.21914
-0.194757
-0.168971
-0.142298
-0.115409
-0.0891208
-0.0643446
-0.0419247
-0.0225502
-0.00603461
0.00705688
0.0208051
0.031722
0.0475499
-0.0838038
-0.0837283
-0.0835208
-0.0826173
-0.0802851
-0.0762993
-0.0714527
-0.0674086
-0.0660033
-0.0686006
-0.0758299
-0.0876312
-0.103435
-0.122365
-0.143422
-0.165621
-0.188079
-0.210059
-0.230969
-0.250355
-0.267872
-0.283261
-0.296326
-0.306923
-0.314944
-0.320311
-0.322968
-0.322881
-0.320034
-0.314437
-0.30607
-0.294966
-0.281182
-0.264788
-0.245881
-0.224603
-0.201157
-0.175826
-0.149003
-0.121209
-0.0931092
-0.0654907
-0.0392076
-0.0150252
0.00645661
0.0254814
0.0414535
0.0594356
0.071768
0.0982234
-0.0817885
-0.0820405
-0.0821217
-0.0810321
-0.0776663
-0.0715793
-0.0635455
-0.0554915
-0.0497405
-0.0481857
-0.0518686
-0.0609648
-0.0749799
-0.0930018
-0.113926
-0.136626
-0.160062
-0.183342
-0.205738
-0.226681
-0.245739
-0.26259
-0.276996
-0.288787
-0.297842
-0.304078
-0.307437
-0.307889
-0.305417
-0.300038
-0.291753
-0.28059
-0.266614
-0.249905
-0.230572
-0.208767
-0.184701
-0.158662
-0.131037
-0.102321
-0.0731264
-0.0441549
-0.0161387
0.0103046
0.0347411
0.057601
0.0784932
0.103264
0.12026
0.163301
-0.0794733
-0.0800809
-0.0804481
-0.0790081
-0.0744092
-0.0661991
-0.05522
-0.0435598
-0.0338786
-0.0284935
-0.0288247
-0.0352946
-0.0475115
-0.0645535
-0.0852361
-0.108313
-0.132609
-0.157092
-0.180905
-0.203368
-0.223958
-0.242287
-0.25807
-0.271107
-0.281259
-0.288434
-0.292575
-0.293654
-0.29166
-0.286608
-0.278525
-0.267449
-0.253455
-0.236638
-0.217116
-0.195049
-0.170651
-0.144201
-0.11605
-0.0866322
-0.0564513
-0.0260545
0.0040236
0.0333963
0.0618828
0.0902329
0.118452
0.153633
0.183409
0.248092
-0.0769619
-0.0778109
-0.078309
-0.0762639
-0.0702145
-0.0597865
-0.0461184
-0.0314612
-0.0185837
-0.0100473
-0.00755788
-0.0117527
-0.0223537
-0.0384611
-0.0588483
-0.0821862
-0.107191
-0.132717
-0.157796
-0.181649
-0.203669
-0.223401
-0.240514
-0.254774
-0.266022
-0.274158
-0.279123
-0.280893
-0.279465
-0.274859
-0.267113
-0.256275
-0.242443
-0.225735
-0.206278
-0.18423
-0.159794
-0.133216
-0.104791
-0.0748482
-0.0437308
-0.0117554
0.0208493
0.0540768
0.0881716
0.124325
0.162851
0.212506
0.260006
0.33857
-0.07554
-0.0762383
-0.0763667
-0.0731426
-0.0652626
-0.0526101
-0.03653
-0.0195325
-0.00439488
0.00638097
0.0108967
0.00837067
-0.000996339
-0.016343
-0.0364452
-0.0599361
-0.0854666
-0.11181
-0.137916
-0.162926
-0.186164
-0.207117
-0.22541
-0.240778
-0.253042
-0.262092
-0.267865
-0.270341
-0.269526
-0.265453
-0.258178
-0.247742
-0.234234
-0.217797
-0.198584
-0.17675
-0.152472
-0.12595
-0.0973978
-0.0670148
-0.0349423
-0.00118757
0.0344806
0.0727289
0.114724
0.162797
0.218015
0.289138
0.349501
0.424469
-0.0797131
-0.079014
-0.0774056
-0.0717962
-0.061249
-0.0460097
-0.0276828
-0.00887028
0.00764756
0.0196586
0.0253977
0.0238633
0.0152429
0.000375329
-0.0195399
-0.0431341
-0.0690304
-0.0959584
-0.122816
-0.14869
-0.172854
-0.194753
-0.213976
-0.230232
-0.243327
-0.253139
-0.259604
-0.262701
-0.262442
-0.258868
-0.252041
-0.242051
-0.228976
-0.212897
-0.193972
-0.17238
-0.148282
-0.121833
-0.0931659
-0.0623418
-0.0292769
0.00639346
0.0455181
0.0898111
0.142191
0.20788
0.291674
0.403591
0.495851
0.603429
-0.103146
-0.0953259
-0.0868805
-0.0760922
-0.0617285
-0.0433959
-0.0227393
-0.00233717
0.0153621
0.0281475
0.0343289
0.0332189
0.0250086
0.0104884
-0.00918804
-0.0326861
-0.0586447
-0.0857892
-0.112998
-0.13933
-0.164028
-0.186504
-0.206322
-0.223169
-0.236834
-0.247185
-0.254152
-0.257711
-0.257876
-0.254689
-0.248215
-0.23854
-0.225762
-0.209991
-0.191352
-0.169984
-0.146038
-0.119638
-0.090847
-0.0596034
-0.0256049
0.0118917
0.0544015
0.104845
0.16835
0.254411
0.375701
0.555745
0.767705
1.10786
-0.189981
-0.112226
-0.0806392
-0.0714105
-0.0581321
-0.0387571
-0.0170575
0.00395213
0.0217621
0.0341967
0.0398503
0.0382395
0.0296364
0.0148604
-0.00494181
-0.0284722
-0.0544155
-0.0815361
-0.108739
-0.135098
-0.15986
-0.182437
-0.202386
-0.219388
-0.233224
-0.243757
-0.250912
-0.254661
-0.255017
-0.252019
-0.245733
-0.236243
-0.223648
-0.208058
-0.189593
-0.168386
-0.144571
-0.118244
-0.0894107
-0.0579122
-0.0232823
0.0155027
0.0604349
0.115257
0.186527
0.286589
0.435333
0.680391
1.07939
1.82855
)
;

boundaryField
{
    movingWall
    {
        type            zeroGradient;
    }
    fixedWalls
    {
        type            zeroGradient;
    }
    frontAndBack
    {
        type            empty;
    }
}


// ************************************************************************* //
