/*--------------------------------*- C++ -*----------------------------------*\
  =========                 |
  \\      /  F ield         | OpenFOAM: The Open Source CFD Toolbox
   \\    /   O peration     | Website:  https://openfoam.org
    \\  /    A nd           | Version:  7
     \\/     M anipulation  |
\*---------------------------------------------------------------------------*/
FoamFile
{
    version     2.0;
    format      ascii;
    class       surfaceScalarField;
    location    "1600";
    object      phi;
}
// * * * * * * * * * * * * * * * * * * * * * * * * * * * * * * * * * * * * * //

dimensions      [0 3 -1 0 0 0 0];

internalField   nonuniform List<scalar> 
4900
(
1.7004e-06
-1.70316e-06
6.22426e-06
-4.52385e-06
1.17167e-05
-5.49241e-06
1.65025e-05
-4.78584e-06
1.97498e-05
-3.24733e-06
2.13888e-05
-1.63905e-06
2.17673e-05
-3.78486e-07
2.12617e-05
5.0553e-07
2.00153e-05
1.24634e-06
1.78641e-05
2.15113e-06
1.4415e-05
3.4491e-06
9.18103e-06
5.23393e-06
1.67114e-06
7.50985e-06
-8.56665e-06
1.02377e-05
-2.18817e-05
1.3315e-05
-3.84368e-05
1.65551e-05
-5.81361e-05
1.96993e-05
-8.05438e-05
2.24077e-05
-0.000104822
2.42776e-05
-0.000129712
2.48906e-05
-0.000153588
2.3876e-05
-0.000174563
2.09746e-05
-0.000190654
1.60916e-05
-0.000199988
9.33409e-06
-0.000201045
1.0563e-06
-0.000192882
-8.16244e-06
-0.000175257
-1.76251e-05
-0.000148692
-2.65656e-05
-0.000114481
-3.42112e-05
-7.46496e-05
-3.9831e-05
-3.18507e-05
-4.27989e-05
1.08002e-05
-4.26509e-05
5.00466e-05
-3.92464e-05
8.30377e-05
-3.29912e-05
0.000107598
-2.45606e-05
0.000122465
-1.48665e-05
0.000127524
-5.05922e-06
0.000123859
3.6655e-06
0.000113466
1.03922e-05
9.87395e-05
1.47268e-05
8.20209e-05
1.67186e-05
6.52479e-05
1.6773e-05
4.97655e-05
1.54823e-05
3.63076e-05
1.34579e-05
2.51013e-05
1.12063e-05
1.60385e-05
9.06279e-06
8.89239e-06
7.14607e-06
3.59372e-06
5.29865e-06
5.04985e-07
3.08872e-06
5.04982e-07
4.47521e-06
-6.17836e-06
1.38491e-05
-1.38977e-05
2.43109e-05
-1.59543e-05
3.28991e-05
-1.33741e-05
3.80017e-05
-8.34994e-06
3.92281e-05
-2.86558e-06
3.68603e-05
1.98926e-06
3.1205e-05
6.16073e-06
2.21542e-05
1.0297e-05
9.08001e-06
1.52252e-05
-9.0146e-06
2.15436e-05
-3.32303e-05
2.94496e-05
-6.44668e-05
3.87463e-05
-0.000103164
4.89344e-05
-0.000149091
5.92423e-05
-0.000201189
6.86528e-05
-0.00025751
7.60206e-05
-0.000315345
8.02425e-05
-0.000371497
8.0429e-05
-0.000422629
7.60234e-05
-0.000465604
6.68512e-05
-0.000497743
5.3113e-05
-0.000516993
3.53412e-05
-0.000522013
1.43544e-05
-0.000512257
-8.6994e-06
-0.000487817
-3.26029e-05
-0.00044933
-5.61117e-05
-0.000398004
-7.78922e-05
-0.000335665
-9.65502e-05
-0.000264786
-0.00011071
-0.000188459
-0.000119126
-0.00011026
-0.00012085
-3.40707e-05
-0.000115436
3.60357e-05
-0.000103098
9.63687e-05
-8.48937e-05
0.000144114
-6.26117e-05
0.000177349
-3.8294e-05
0.000195284
-1.42698e-05
0.000198514
7.16162e-06
0.000189139
2.41026e-05
0.000170306
3.55516e-05
0.000145606
4.14722e-05
0.00011845
4.26385e-05
9.16024e-05
4.03056e-05
6.69295e-05
3.58792e-05
4.54183e-05
3.0574e-05
2.74586e-05
2.51058e-05
1.33345e-05
1.94227e-05
3.75521e-06
1.2668e-05
4.26018e-06
5.98745e-06
-1.21658e-05
1.73374e-05
-2.52477e-05
2.88017e-05
-2.74187e-05
3.68224e-05
-2.13948e-05
3.95377e-05
-1.10654e-05
3.6359e-05
3.13034e-07
2.72233e-05
1.11249e-05
1.19233e-05
2.14606e-05
-1.03057e-05
3.25259e-05
-4.07405e-05
4.56599e-05
-8.07407e-05
6.15438e-05
-0.00013123
7.99384e-05
-0.000192272
9.97889e-05
-0.000262765
0.000119427
-0.000340362
0.000136839
-0.000421706
0.000149997
-0.000502881
0.000157195
-0.000579934
0.000157296
-0.000649322
0.000149817
-0.000708181
0.000134882
-0.000754421
0.000113091
-0.000786691
8.53828e-05
-0.000804232
5.28829e-05
-0.000806689
1.68109e-05
-0.000793918
-2.14702e-05
-0.000765941
-6.05801e-05
-0.000723076
-9.89763e-05
-0.000666055
-0.000134914
-0.000596109
-0.000166496
-0.000515086
-0.000191733
-0.000425511
-0.0002087
-0.000330584
-0.000215777
-0.000234087
-0.000211933
-0.000140156
-0.000197029
-5.30195e-05
-0.00017203
2.33576e-05
-0.000138989
8.60038e-05
-0.00010094
0.000133128
-6.13939e-05
0.000163764
-2.34741e-05
0.000178054
9.81172e-06
0.000177539
3.60672e-05
0.00016502
5.39911e-05
0.000144046
6.36121e-05
0.0001183
6.60522e-05
9.10405e-05
6.31384e-05
6.47424e-05
5.6872e-05
4.10642e-05
4.87839e-05
2.12071e-05
3.92797e-05
6.60692e-06
2.72682e-05
1.08671e-05
6.50874e-06
-1.86746e-05
1.75972e-05
-3.63362e-05
2.69526e-05
-3.67742e-05
3.07601e-05
-2.52024e-05
2.72138e-05
-7.51905e-06
1.56203e-05
1.19064e-05
-4.55553e-06
3.13007e-05
-3.43275e-05
5.12325e-05
-7.52186e-05
7.34169e-05
-0.000128705
9.91467e-05
-0.000195519
0.000128357
-0.000275078
0.000159498
-0.000365258
0.000189969
-0.000462572
0.000216741
-0.000562706
0.000236974
-0.000661212
0.000248503
-0.000754113
0.000250096
-0.000838274
0.000241457
-0.000911485
0.000223027
-0.000972331
0.000195728
-0.00101999
0.000160749
-0.00105398
0.000119373
-0.00107394
7.28497e-05
-0.00107955
2.24154e-05
-0.00107041
-3.06096e-05
-0.00104624
-8.47519e-05
-0.00100688
-0.000138338
-0.000952379
-0.000189411
-0.000883162
-0.000235714
-0.000800166
-0.000274729
-0.000705025
-0.000303841
-0.000600225
-0.000320577
-0.000489184
-0.000322974
-0.000376174
-0.000310039
-0.000266031
-0.000282173
-0.00016361
-0.00024141
-7.32265e-05
-0.000191324
1.8486e-06
-0.000136469
6.00418e-05
-8.16674e-05
0.000101049
-3.11958e-05
0.000125126
1.19901e-05
0.000133564
4.55534e-05
0.000128868
6.83078e-05
0.000114336
8.05849e-05
9.35488e-05
8.39251e-05
6.98701e-05
8.05506e-05
4.61158e-05
7.25382e-05
2.4636e-05
6.07596e-05
7.92817e-06
4.3976e-05
1.87953e-05
6.20567e-06
-2.48803e-05
1.4897e-05
-4.50276e-05
1.92091e-05
-4.10864e-05
1.54811e-05
-2.14745e-05
2.16614e-06
5.79584e-06
-2.16197e-05
3.56921e-05
-5.7053e-05
6.67339e-05
-0.00010586
0.000100039
-0.000169665
0.000137221
-0.00024903
0.000178512
-0.000342773
0.000222099
-0.000447875
0.0002646
-0.000559958
0.000302051
-0.000674078
0.000330861
-0.000785559
0.000348454
-0.000890578
0.000353523
-0.000986412
0.000345929
-0.00107134
0.000326389
-0.00114441
0.000296089
-0.00120511
0.000256432
-0.00125323
0.000208871
-0.00128862
0.000154759
-0.0013111
9.53316e-05
-0.00132052
3.18333e-05
-0.00131663
-3.44948e-05
-0.00129908
-0.000102308
-0.00126734
-0.000170074
-0.00122086
-0.000235896
-0.00115911
-0.000297459
-0.00108182
-0.00035202
-0.000989215
-0.000396445
-0.000882397
-0.000427395
-0.000763662
-0.000441709
-0.000636712
-0.000436989
-0.000506616
-0.000412269
-0.000379399
-0.000368626
-0.000261261
-0.000309461
-0.000157502
-0.000240229
-7.16473e-05
-0.000167522
-5.13659e-06
-9.77065e-05
4.25733e-05
-3.57198e-05
7.27273e-05
1.53994e-05
8.69288e-05
5.41062e-05
8.77059e-05
7.98077e-05
7.82676e-05
9.33634e-05
6.2126e-05
9.66922e-05
4.27418e-05
9.19224e-05
2.3409e-05
8.00923e-05
7.60343e-06
5.97815e-05
2.63987e-05
4.89926e-06
-2.97796e-05
8.88353e-06
-4.9012e-05
5.29578e-06
-3.74987e-05
-8.91417e-06
-7.2646e-06
-3.50907e-05
3.19723e-05
-7.43963e-05
7.49977e-05
-0.000128549
0.000120887
-0.000199299
0.000170788
-0.000287202
0.000225125
-0.000390738
0.000282048
-0.000506261
0.000337622
-0.00062871
0.000387049
-0.000752637
0.000425978
-0.000873134
0.000451358
-0.000986396
0.000461717
-0.00108986
0.000456991
-0.00118206
0.000438123
-0.00126226
0.000406593
-0.00133027
0.0003641
-0.00138623
0.000312394
-0.00143048
0.000253113
-0.00146338
0.000187667
-0.00148537
0.000117318
-0.0014968
4.32596e-05
-0.00149776
-3.35272e-05
-0.001488
-0.000112076
-0.00146686
-0.000191206
-0.00143336
-0.000269405
-0.00138609
-0.000344726
-0.00132349
-0.000414624
-0.00124409
-0.000475843
-0.00114701
-0.000524478
-0.00103245
-0.000556265
-0.000902299
-0.00056714
-0.000760513
-0.000554055
-0.000613215
-0.000515925
-0.000468191
-0.000454486
-0.000333704
-0.000374716
-0.000216817
-0.000284408
-0.000121833
-0.00019269
-4.97082e-05
-0.000107845
1.19381e-06
-3.55027e-05
3.34745e-05
2.18255e-05
4.96853e-05
6.35969e-05
5.27854e-05
9.02633e-05
4.6189e-05
0.000103289
3.3599e-05
0.000104512
1.88761e-05
9.48151e-05
6.11486e-06
7.25428e-05
3.25136e-05
2.27622e-06
-3.20558e-05
-9.09139e-07
-4.58267e-05
-1.49955e-05
-2.34124e-05
-4.21753e-05
1.99151e-05
-8.36315e-05
7.34285e-05
-0.000140798
0.000132165
-0.000215376
0.000195465
-0.000308045
0.000263457
-0.000417268
0.000334349
-0.000539104
0.000403884
-0.000668006
0.000466524
-0.00079804
0.000517084
-0.000923938
0.000551876
-0.00104168
0.000569097
-0.0011486
0.00056864
-0.00124323
0.000551624
-0.00132499
0.000519883
-0.00139395
0.000475548
-0.00145067
0.000420824
-0.0014961
0.000357817
-0.00153131
0.000288328
-0.00155746
0.000213818
-0.00157565
0.000135504
-0.0015867
5.43138e-05
-0.00159106
-2.9167e-05
-0.00158872
-0.000114416
-0.00157919
-0.000200741
-0.0015613
-0.000287296
-0.0015332
-0.000372824
-0.00149244
-0.000455383
-0.00143615
-0.000532128
-0.00136143
-0.000599201
-0.00126589
-0.000651801
-0.0011485
-0.000684537
-0.00101042
-0.000692127
-0.000855854
-0.000670493
-0.000692213
-0.000618127
-0.000529546
-0.000537383
-0.00037886
-0.000435094
-0.000249636
-0.000321915
-0.000147352
-0.000210129
-7.24666e-05
-0.000110388
-2.1675e-05
-2.89661e-05
9.34551e-06
3.25764e-05
2.44527e-05
7.51561e-05
2.74304e-05
0.000100311
2.2236e-05
0.000109707
1.30496e-05
0.000104002
4.21395e-06
8.13784e-05
3.67275e-05
-1.91458e-06
-3.01413e-05
-1.46463e-05
-3.30951e-05
-4.13113e-05
3.25256e-06
-8.32012e-05
6.1805e-05
-0.000141328
0.000131555
-0.00021709
0.000207927
-0.000311271
0.000289646
-0.00042259
0.000374776
-0.000547157
0.000458916
-0.000679169
0.000535895
-0.000812238
0.000599593
-0.000940602
0.000645448
-0.00105981
0.000671088
-0.00116691
0.000676193
-0.00126027
0.000661994
-0.00133934
0.0006307
-0.00140446
0.000585003
-0.00145663
0.000527719
-0.00149736
0.000461554
-0.00152841
0.000388864
-0.00155158
0.000311494
-0.00156858
0.000230826
-0.00158091
0.000147829
-0.00158962
6.3022e-05
-0.00159541
-2.33765e-05
-0.00159858
-0.000111244
-0.0015989
-0.000200427
-0.00159543
-0.000290767
-0.00158648
-0.000381768
-0.00156952
-0.000472344
-0.00154111
-0.000560543
-0.00149703
-0.000643279
-0.00143271
-0.000716118
-0.001344
-0.00077325
-0.0012283
-0.00080783
-0.00108589
-0.000812903
-0.000921074
-0.000782941
-0.000742704
-0.000715753
-0.000563525
-0.000614273
-0.000397919
-0.000487521
-0.00025828
-0.000349768
-0.000151373
-0.000217295
-7.68374e-05
-0.000103501
-2.92086e-05
-1.50526e-05
-2.05797e-06
4.80055e-05
9.98484e-06
8.8268e-05
1.17372e-05
0.000107954
7.795e-06
0.000107944
2.60202e-06
8.65713e-05
3.93295e-05
-7.74106e-06
-2.24002e-05
-3.18894e-05
-8.94675e-06
-7.24825e-05
4.38455e-05
-0.000129779
0.000119101
-0.0002046
0.000206377
-0.000297678
0.000301004
-0.000408121
0.000400088
-0.000532423
0.000499078
-0.000664811
0.000591305
-0.000798555
0.000669639
-0.000927341
0.000728379
-0.00104615
0.000764259
-0.00115156
0.000776501
-0.00124169
0.00076632
-0.00131598
0.00073628
-0.00137498
0.000689699
-0.00142011
0.000630139
-0.00145342
0.000561029
-0.00147723
0.000485365
-0.00149386
0.00040549
-0.00150542
0.000323055
-0.00151374
0.00023914
-0.00152021
0.000154304
-0.00152587
6.86802e-05
-0.00153146
-1.77872e-05
-0.00153742
-0.000105284
-0.00154379
-0.000194055
-0.00155017
-0.000284386
-0.00155556
-0.000376378
-0.00155812
-0.000469783
-0.0015549
-0.000563762
-0.00154165
-0.000656527
-0.00151288
-0.00074489
-0.00146231
-0.000823817
-0.00138386
-0.000886282
-0.00127309
-0.000923677
-0.00112906
-0.000926971
-0.000956124
-0.000888688
-0.000764815
-0.000805582
-0.000571027
-0.000681309
-0.000392972
-0.000527823
-0.000246179
-0.000364088
-0.000138388
-0.000211292
-6.76946e-05
-8.5746e-05
-2.58879e-05
6.19882e-06
-4.30495e-06
6.6685e-05
3.87475e-06
9.97747e-05
4.28462e-06
0.000107534
1.71544e-06
8.91405e-05
4.1045e-05
-1.49311e-05
-7.4692e-06
-5.16573e-05
2.77795e-05
-0.000106476
9.86644e-05
-0.000178714
0.000191338
-0.000268721
0.000296384
-0.000375958
0.000408241
-0.000497559
0.00052169
-0.000628129
0.000629648
-0.000760814
0.00072399
-0.000888795
0.000797619
-0.00100641
0.00084599
-0.00110965
0.000867506
-0.00119628
0.000863131
-0.00126565
0.000835683
-0.00131848
0.000789111
-0.0013566
0.000727819
-0.00138254
0.000656085
-0.00139914
0.00057763
-0.00140913
0.000495353
-0.00141488
0.000411234
-0.00141828
0.000326463
-0.00142078
0.000241636
-0.00142336
0.000156881
-0.00142673
7.20541e-05
-0.00143143
-1.30835e-05
-0.00143785
-9.88647e-05
-0.00144624
-0.000185671
-0.00145671
-0.000273909
-0.00146913
-0.000363962
-0.00148277
-0.000456146
-0.00149596
-0.000550566
-0.00150569
-0.0006468
-0.00150722
-0.000743363
-0.001494
-0.000837039
-0.00145802
-0.000922252
-0.00139101
-0.000990691
-0.0012864
-0.00103159
-0.00114193
-0.00103315
-0.000962077
-0.000985433
-0.000759345
-0.000884042
-0.000553298
-0.00073387
-0.000366417
-0.000550969
-0.000217185
-0.000360523
-0.00011333
-0.000189601
-5.01796e-05
-5.6952e-05
-1.63315e-05
3.28369e-05
-1.28533e-06
8.47285e-05
2.75069e-06
0.000103498
1.64898e-06
9.02422e-05
4.26939e-05
-2.29859e-05
1.55167e-05
-7.24406e-05
7.72341e-05
-0.0001407
0.000166924
-0.000226253
0.000276891
-0.000328576
0.000398706
-0.000445543
0.000525209
-0.000572491
0.000648637
-0.000702783
0.000759941
-0.000829266
0.000850472
-0.000945628
0.000913982
-0.00104721
0.000947572
-0.00113126
0.000951561
-0.00119693
0.000928795
-0.00124502
0.000883772
-0.00127768
0.000821775
-0.00129792
0.000748059
-0.00130904
0.000667207
-0.00131416
0.000582745
-0.00131584
0.000497034
-0.001316
0.000411394
-0.00131593
0.000326389
-0.00131639
0.000242096
-0.00131781
0.000158309
-0.00132048
7.47238e-05
-0.0013246
-8.96599e-06
-0.00133039
-9.30725e-05
-0.00133816
-0.0001779
-0.00134833
-0.000263742
-0.00136133
-0.000350966
-0.00137742
-0.000440058
-0.00139638
-0.000531598
-0.00141709
-0.000626094
-0.00143684
-0.000723614
-0.00145071
-0.000823172
-0.00145117
-0.000921793
-0.00142846
-0.0010134
-0.00137199
-0.00108805
-0.0012729
-0.00113224
-0.00112749
-0.00113085
-0.000940599
-0.00107093
-0.000727434
-0.000947035
-0.000512
-0.000766403
-0.00032127
-0.000551253
-0.000175841
-0.000335031
-8.16101e-05
-0.000151183
-2.96118e-05
-1.91615e-05
-5.39046e-06
6.05071e-05
2.49469e-06
9.56127e-05
2.18179e-06
9.05551e-05
4.48757e-05
-3.11637e-05
4.66803e-05
-9.24267e-05
0.000138497
-0.00017242
0.000246918
-0.000268673
0.000373144
-0.00037953
0.000509563
-0.000501307
0.000646986
-0.000628013
0.000775343
-0.000752472
0.0008844
-0.000867841
0.00096584
-0.000968732
0.00101487
-0.00105176
0.0010306
-0.00111566
0.00101546
-0.00116116
0.000974293
-0.00119059
0.000913203
-0.00120734
0.000838523
-0.00121515
0.000755873
-0.00121751
0.000669569
-0.00121721
0.000582445
-0.00121619
0.000496005
-0.00121557
0.000410778
-0.0012159
0.000326716
-0.0012173
0.000243502
-0.00121974
0.000160748
-0.00122313
7.81137e-05
-0.00122743
-4.67168e-06
-0.00123269
-8.78056e-05
-0.00123916
-0.000171435
-0.00124723
-0.000255669
-0.00125749
-0.000340703
-0.00127067
-0.000426879
-0.00128752
-0.000514754
-0.00130849
-0.000605118
-0.00133318
-0.00069893
-0.00135939
-0.000796961
-0.00138224
-0.000898937
-0.00139346
-0.00100218
-0.0013815
-0.00110002
-0.00133318
-0.00118056
-0.00123717
-0.00122686
-0.00108859
-0.0012195
-0.000893444
-0.00114218
-0.000670663
-0.000989184
-0.000449623
-0.000772293
-0.000261709
-0.000522944
-0.000127792
-0.0002851
-4.91502e-05
-9.78034e-05
-1.12722e-05
2.26291e-05
2.16037e-06
8.21802e-05
2.88158e-06
8.98339e-05
4.77573e-05
-3.85895e-05
8.52698e-05
-0.000109887
0.000209795
-0.000199149
0.00033618
-0.000302836
0.00047683
-0.00041809
0.000624817
-0.000539957
0.000768853
-0.000661694
0.000897081
-0.000776185
0.000998891
-0.000877348
0.001067
-0.000961016
0.00109854
-0.0010253
0.00109488
-0.00107057
0.00106073
-0.00109912
0.00100285
-0.00111457
0.000928652
-0.00112104
0.000844992
-0.00112238
0.000757215
-0.00112164
0.000668826
-0.00112082
0.000581624
-0.00112097
0.000496159
-0.00112244
0.00041225
-0.00112515
0.000329423
-0.00112882
0.000247171
-0.00113316
0.000165087
-0.00113793
8.28878e-05
-0.001143
3.99201e-07
-0.00114835
-8.24584e-05
-0.00115408
-0.000165705
-0.00116043
-0.000249321
-0.00116781
-0.000333321
-0.00117689
-0.000417799
-0.00118862
-0.000503021
-0.00120417
-0.000589569
-0.00122462
-0.000678481
-0.00125035
-0.000771231
-0.00127995
-0.000869338
-0.00130878
-0.000973358
-0.00132773
-0.00108106
-0.00132329
-0.001185
-0.00127957
-0.00127058
-0.00118283
-0.00131625
-0.00102756
-0.00129745
-0.000822177
-0.00119457
-0.000591058
-0.00100341
-0.000369985
-0.000744018
-0.000193733
-0.000461351
-7.99903e-05
-0.000211546
-2.19459e-05
-3.54152e-05
2.49483e-07
5.99848e-05
3.27373e-06
8.68097e-05
5.1031e-05
-4.44957e-05
0.000129765
-0.000123392
0.000288691
-0.000218971
0.000431759
-0.000326559
0.000584418
-0.000442218
0.000740476
-0.000560137
0.000886772
-0.000673367
0.00101031
-0.000775315
0.00110084
-0.000860973
0.00115266
-0.000927596
0.00116517
-0.000974897
0.00114218
-0.00100483
0.00109066
-0.00102099
0.001019
-0.00102774
0.000935409
-0.00102931
0.000846554
-0.00102902
0.000756927
-0.00102904
0.000668851
-0.00103043
0.000583011
-0.00103341
0.000499135
-0.00103774
0.00041658
-0.00104301
0.000334694
-0.00104882
0.000252982
-0.00105486
0.00017113
-0.00106094
8.89608e-05
-0.00106693
6.39829e-06
-0.00107283
-7.65631e-05
-0.00107865
-0.000159889
-0.00108445
-0.000243516
-0.00109041
-0.000327361
-0.00109687
-0.000411343
-0.00110444
-0.00049545
-0.00111413
-0.000579875
-0.0011274
-0.000665212
-0.00114595
-0.000752682
-0.00117102
-0.000844265
-0.001202
-0.000942384
-0.00123445
-0.0010486
-0.00125842
-0.00116104
-0.00125811
-0.00127089
-0.00121461
-0.00135975
-0.00111201
-0.00140005
-0.000945508
-0.00136107
-0.000728109
-0.00122081
-0.000491759
-0.000980368
-0.000279075
-0.000674034
-0.00012536
-0.000365261
-3.96775e-05
-0.000121098
-4.39067e-06
2.46981e-05
3.03237e-06
7.93866e-05
5.40634e-05
-4.83113e-05
0.000178077
-0.000131956
0.000372335
-0.000230704
0.000530508
-0.000338754
0.000692468
-0.000451326
0.000853048
-0.000562193
0.000997639
-0.000664648
0.00111277
-0.000752948
0.00118914
-0.000823351
0.00122306
-0.000874611
0.00121642
-0.000907968
0.00117554
-0.000926679
0.00110937
-0.000935142
0.00102747
-0.000937854
0.00093812
-0.000938513
0.000847214
-0.000939551
0.000757964
-0.000942123
0.000671423
-0.000946432
0.000587319
-0.000952145
0.000504848
-0.000958755
0.00042319
-0.000965801
0.00034174
-0.000972957
0.000260138
-0.000980035
0.000178208
-0.000986951
9.58775e-05
-0.000993687
1.31343e-05
-0.00100025
-7.00043e-05
-0.00100663
-0.000153506
-0.00101282
-0.000237323
-0.00101881
-0.000321367
-0.00102464
-0.000405512
-0.00103048
-0.000489612
-0.0010368
-0.000573557
-0.00104459
-0.000657425
-0.00105551
-0.000741761
-0.00107179
-0.00082798
-0.00109551
-0.000918663
-0.00112688
-0.00101724
-0.00116159
-0.00112633
-0.00118829
-0.00124419
-0.00118832
-0.00135971
-0.00113963
-0.00144874
-0.00102505
-0.00147565
-0.000842631
-0.00140323
-0.000613006
-0.00120999
-0.000377926
-0.000909114
-0.000185674
-0.000557513
-6.59162e-05
-0.000240856
-1.23347e-05
-2.88833e-05
2.04193e-06
6.50101e-05
5.61054e-05
-4.97067e-05
0.000227783
-0.000135089
0.000457717
-0.000233924
0.000629343
-0.000339353
0.000797897
-0.000446041
0.000959736
-0.000547745
0.00109934
-0.000638332
0.00120335
-0.000713105
0.00126391
-0.000769652
0.00127961
-0.000808147
0.00125492
-0.000831105
0.0011985
-0.000842633
0.0011209
-0.000847351
0.00103219
-0.000849323
0.000940093
-0.000851366
0.000849256
-0.000854891
0.000761489
-0.000860188
0.000676721
-0.0008669
0.000594032
-0.000874455
0.000512403
-0.000882343
0.000431078
-0.000890226
0.000349623
-0.000897938
0.00026785
-0.000905439
0.000185708
-0.000912757
0.000103195
-0.000919943
2.03201e-05
-0.000927039
-6.29086e-05
-0.000934057
-0.000146488
-0.000940975
-0.000230406
-0.000947719
-0.000314623
-0.000954177
-0.000399055
-0.000960233
-0.000483555
-0.000965883
-0.000567908
-0.000971422
-0.000651886
-0.000977742
-0.000735441
-0.000986651
-0.000819071
-0.00100092
-0.000904398
-0.00102345
-0.000994699
-0.00105514
-0.00109465
-0.00109131
-0.00120802
-0.00111851
-0.0013325
-0.00111451
-0.00145275
-0.0010541
-0.00153607
-0.000920613
-0.00153671
-0.000718597
-0.00141201
-0.000480242
-0.00114747
-0.000258235
-0.00077952
-0.000101484
-0.000397606
-2.37465e-05
-0.000106621
3.09211e-07
4.09544e-05
5.64146e-05
-4.85951e-05
0.000276379
-0.000132761
0.000541883
-0.000228865
0.000725447
-0.000329102
0.000898134
-0.000427865
0.0010585
-0.00051921
0.00119069
-0.000597796
0.00128194
-0.000660046
0.00132616
-0.000704814
0.00132438
-0.000733473
0.00128358
-0.000749419
0.00121445
-0.000757099
0.00112858
-0.000760842
0.00103593
-0.000763926
0.000943177
-0.000768178
0.000853508
-0.00077413
0.000767441
-0.000781496
0.000684087
-0.000789679
0.000602214
-0.00079812
0.000520845
-0.000806457
0.000439415
-0.00081453
0.000357696
-0.000822327
0.000275648
-0.000829914
0.000193295
-0.000837381
0.000110663
-0.000844813
2.77524e-05
-0.000852274
-5.54482e-05
-0.000859791
-0.00013897
-0.000867359
-0.000222838
-0.000874918
-0.000307064
-0.000882342
-0.000391631
-0.000889438
-0.000476459
-0.000895965
-0.00056138
-0.000901737
-0.000646115
-0.000906857
-0.00073032
-0.000912133
-0.000813795
-0.000919545
-0.000896986
-0.000932404
-0.00098184
-0.000954435
-0.00107262
-0.000986937
-0.00117552
-0.00102413
-0.00129531
-0.00104918
-0.0014277
-0.00103531
-0.00154993
-0.000955168
-0.00161686
-0.000796118
-0.00157106
-0.000574311
-0.00136928
-0.000337219
-0.00101661
-0.000146119
-0.000588706
-3.90034e-05
-0.000213737
-2.30589e-06
4.25682e-06
5.41086e-05
-4.50958e-05
0.000321474
-0.000125314
0.000622101
-0.000216258
0.000816391
-0.000309299
0.000991175
-0.000398801
0.001148
-0.000479348
0.00127123
-0.000546492
0.00134908
-0.000597745
0.00137741
-0.000633048
0.00135968
-0.000654647
0.00130518
-0.000666382
0.00122618
-0.000672579
0.00113478
-0.000676933
0.00104028
-0.000681808
0.000948052
-0.000688157
0.000859856
-0.0006959
0.000775185
-0.00070448
0.000692667
-0.000713303
0.000611037
-0.000721962
0.000529504
-0.000730282
0.000447735
-0.000738258
0.000365673
-0.000745977
0.000283367
-0.000753554
0.000200872
-0.0007611
0.000118208
-0.000768698
3.53507e-05
-0.000776413
-4.77333e-05
-0.000784279
-0.000131104
-0.000792305
-0.000214811
-0.000800467
-0.000298902
-0.000808685
-0.000383412
-0.000816804
-0.000468341
-0.000824566
-0.000553619
-0.000831621
-0.000639059
-0.000837631
-0.000724311
-0.000842537
-0.000808888
-0.000847086
-0.000892438
-0.000853499
-0.000975427
-0.000865768
-0.00106035
-0.000888418
-0.00115287
-0.000922586
-0.00126114
-0.000959966
-0.00139032
-0.000978686
-0.00153121
-0.000947147
-0.0016484
-0.00083838
-0.00167983
-0.000649525
-0.00155813
-0.000414638
-0.0012515
-0.00019777
-0.000805573
-5.87634e-05
-0.000352743
-5.87523e-06
-4.86314e-05
4.82334e-05
-3.94814e-05
0.000360956
-0.000113347
0.000695967
-0.000197142
0.000900186
-0.000281537
0.00107557
-0.00036104
0.00122751
-0.000430901
0.0013411
-0.000487585
0.00140577
-0.000529563
0.00141939
-0.000557607
0.00138773
-0.000574472
0.00132204
-0.000584037
0.00123575
-0.000590172
0.00114091
-0.000595782
0.00104589
-0.000602386
0.000954656
-0.000610286
0.000867757
-0.000619078
0.000783976
-0.000628164
0.000701754
-0.000637085
0.000619958
-0.000645622
0.00053804
-0.000653756
0.000455869
-0.000661583
0.000373499
-0.000669231
0.000291015
-0.000676825
0.000208466
-0.000684465
0.000125847
-0.000692222
4.31079e-05
-0.00070015
-3.98049e-05
-0.00070828
-0.000122974
-0.000716629
-0.000206463
-0.000725193
-0.000290338
-0.000733938
-0.000374667
-0.000742775
-0.000459505
-0.000751525
-0.000544869
-0.000759886
-0.000630698
-0.00076742
-0.000716777
-0.000773645
-0.000802663
-0.000778373
-0.000887709
-0.000782394
-0.000971407
-0.000788361
-0.00105438
-0.00080111
-0.00114012
-0.000825782
-0.00123647
-0.000862319
-0.00135378
-0.000897839
-0.00149569
-0.000903588
-0.00164265
-0.000844151
-0.00173926
-0.0006986
-0.00170368
-0.000482253
-0.00146785
-0.00025235
-0.00103548
-8.31735e-05
-0.00052192
-1.03786e-05
-0.000121426
3.78548e-05
-3.21235e-05
0.000393079
-9.76077e-05
0.000761451
-0.000172705
0.000975283
-0.000247484
0.00115035
-0.000316708
0.00129673
-0.000376354
0.00140074
-0.000423738
0.00145315
-0.000458111
0.00145376
-0.000480783
0.0014104
-0.000494668
0.00133593
-0.000503367
0.00124444
-0.000510109
0.00114766
-0.000517014
0.0010528
-0.000524927
0.000962569
-0.000533752
0.000876582
-0.000542978
0.000793202
-0.000552105
0.000710881
-0.000560849
0.000628701
-0.000569148
0.000546339
-0.000577086
0.000463808
-0.000584802
0.000381215
-0.000592431
0.000298645
-0.000600084
0.000216119
-0.000607844
0.000133607
-0.000615769
5.10334e-05
-0.000623905
-3.16695e-05
-0.000632273
-0.000114605
-0.000640891
-0.000197845
-0.000649761
-0.000281467
-0.000658872
-0.000365556
-0.00066818
-0.000450196
-0.00067759
-0.000535459
-0.000686907
-0.000621381
-0.000695782
-0.000707902
-0.000703686
-0.000794759
-0.000710019
-0.000881376
-0.000714528
-0.000966897
-0.0007182
-0.00105071
-0.000724397
-0.00113392
-0.000739024
-0.00122184
-0.000767365
-0.00132544
-0.000806166
-0.00145689
-0.000835015
-0.0016138
-0.000817416
-0.00175686
-0.000718649
-0.00180245
-0.000533462
-0.00165303
-0.00030458
-0.00126436
-0.000111226
-0.000715274
-1.58198e-05
-0.000216832
2.2035e-05
-2.34461e-05
0.000416525
-7.89014e-05
0.000816906
-0.000144144
0.00104053
-0.000208728
0.00121493
-0.000267711
0.00135571
-0.000317792
0.00145082
-0.000357038
0.0014924
-0.000385264
0.00148199
-0.000404036
0.00142917
-0.000416138
0.00134803
-0.000424679
0.00125299
-0.000432191
0.00115517
-0.000440115
0.00106072
-0.000448826
0.00097128
-0.000458038
0.000885794
-0.000467276
0.00080244
-0.000476188
0.000719793
-0.000484645
0.000637158
-0.000492695
0.000554389
-0.00050047
0.000471583
-0.000508116
0.000388862
-0.000515756
0.000306284
-0.000523481
0.000223845
-0.000531365
0.00014149
-0.000539457
5.91257e-05
-0.000547798
-2.33284e-05
-0.000556405
-0.000105998
-0.000565289
-0.000188962
-0.000574452
-0.000272304
-0.000583887
-0.000356122
-0.000593571
-0.000440512
-0.000603454
-0.000525575
-0.000613429
-0.000611406
-0.000623276
-0.000698055
-0.000632591
-0.000785444
-0.000640751
-0.000873217
-0.000647048
-0.000960599
-0.000651267
-0.00104649
-0.000654873
-0.00113032
-0.000662362
-0.00121436
-0.000680755
-0.00130705
-0.000714101
-0.00142354
-0.000752677
-0.00157522
-0.000765637
-0.0017439
-0.000710962
-0.00185713
-0.000564426
-0.00179957
-0.000349417
-0.00147937
-0.000140921
-0.00092377
-2.20966e-05
-0.000335657
-6.16679e-08
-1.389e-05
0.000430415
-5.80262e-05
0.000861043
-0.000112585
0.00109508
-0.000166684
0.00126903
-0.000215652
0.00140468
-0.000256866
0.00149204
-0.000289012
0.00152454
-0.000312262
0.00150524
-0.000328192
0.0014451
-0.000339237
0.00135908
-0.000347908
0.00126166
-0.000356068
0.00116333
-0.000364625
0.00106928
-0.000373669
0.000980324
-0.00038287
0.000894996
-0.000391859
0.000811429
-0.000400431
0.000728365
-0.000408569
0.000645297
-0.000416381
0.000562201
-0.000424012
0.000479214
-0.000431597
0.000396447
-0.00043924
0.000313928
-0.000447022
0.000231627
-0.000455007
0.000149475
-0.000463248
6.73668e-05
-0.000471786
-1.47899e-05
-0.000480635
-9.71488e-05
-0.000489803
-0.000179794
-0.000499284
-0.000262823
-0.000509068
-0.000346337
-0.000519136
-0.000430444
-0.000529455
-0.000515256
-0.000539966
-0.000600895
-0.000550541
-0.00068748
-0.000560922
-0.000775064
-0.000570626
-0.000863512
-0.000578919
-0.000952306
-0.000585032
-0.00104037
-0.000588982
-0.00112637
-0.00059314
-0.0012102
-0.000603581
-0.00129661
-0.000627974
-0.00139915
-0.000666248
-0.00153695
-0.000697593
-0.00171256
-0.000679882
-0.00187484
-0.000574304
-0.00190515
-0.000383143
-0.00167053
-0.000169681
-0.00113723
-2.94193e-05
-0.000475919
-2.94809e-05
-3.87511e-06
0.00043429
-3.57469e-05
0.000892914
-7.90375e-05
0.00113838
-0.000122555
0.00131255
-0.00016182
0.00144395
-0.000194812
0.00152503
-0.000220704
0.00155043
-0.000239847
0.00152439
-0.000253628
0.00145888
-0.000263997
0.00136944
-0.000272824
0.00127048
-0.000281385
0.00117189
-0.000290195
0.00107809
-0.000299203
0.000989332
-0.000308122
0.000903915
-0.000316708
0.000820015
-0.000324875
0.000736531
-0.000332679
0.000653101
-0.00034025
0.000569772
-0.000347727
0.000486691
-0.000355227
0.000403947
-0.000362842
0.000321543
-0.000370642
0.000239427
-0.000378692
0.000157525
-0.000387053
7.57278e-05
-0.000395771
-6.07145e-06
-0.000404863
-8.80572e-05
-0.000414331
-0.000170326
-0.000424164
-0.000252989
-0.000434345
-0.000336156
-0.00044485
-0.000419939
-0.000455652
-0.000504454
-0.000466707
-0.000589839
-0.000477941
-0.000676246
-0.000489191
-0.000763813
-0.000500134
-0.000852569
-0.000510185
-0.000942255
-0.000518494
-0.00103207
-0.000524325
-0.00112054
-0.000528265
-0.00120626
-0.000534232
-0.00129064
-0.00055017
-0.00138321
-0.000582433
-0.00150468
-0.000621509
-0.00167348
-0.000631414
-0.00186493
-0.00056481
-0.00197175
-0.000403872
-0.00183147
-0.000195065
-0.00134604
-3.78514e-05
-0.000633133
-6.73324e-05
6.06123e-06
0.000428229
-1.2732e-05
0.000911708
-4.43916e-05
0.00117004
-7.73305e-05
0.00134549
-0.000107213
0.00147383
-0.000132515
0.00155033
-0.000152784
0.0015707
-0.000168403
0.00154
-0.000180438
0.00147091
-0.000190272
0.00137928
-0.000199148
0.00127936
-0.000207836
0.00118058
-0.000216581
0.00108683
-0.000225282
0.000998032
-0.000233737
0.00091237
-0.000241822
0.0008281
-0.000249539
0.000744248
-0.000256983
0.000660545
-0.000264287
0.000577075
-0.000271573
0.000493978
-0.000278946
0.00041132
-0.000286486
0.000329083
-0.00029426
0.000247201
-0.000302332
0.000165597
-0.000310777
8.41731e-05
-0.000319651
2.80214e-06
-0.000328978
-7.87295e-05
-0.00033876
-0.000160545
-0.000348975
-0.000242774
-0.0003596
-0.000325531
-0.000370606
-0.000408932
-0.000381965
-0.000493096
-0.000393638
-0.000578166
-0.000405571
-0.000664313
-0.000417659
-0.000751725
-0.000429686
-0.000840542
-0.000441235
-0.000930707
-0.000451587
-0.00102171
-0.000459805
-0.00111232
-0.000465414
-0.00120065
-0.000470175
-0.00128588
-0.000480286
-0.0013731
-0.000504803
-0.00148017
-0.000543966
-0.00163432
-0.000571948
-0.00183695
-0.000539374
-0.00200433
-0.000411505
-0.00195934
-0.000215308
-0.00154223
-4.69689e-05
-0.000801472
-0.000114301