/*--------------------------------*- C++ -*----------------------------------*\
  =========                 |
  \\      /  F ield         | OpenFOAM: The Open Source CFD Toolbox
   \\    /   O peration     | Website:  https://openfoam.org
    \\  /    A nd           | Version:  7
     \\/     M anipulation  |
\*---------------------------------------------------------------------------*/
FoamFile
{
    version     2.0;
    format      ascii;
    class       volVectorField;
    location    "1600";
    object      U;
}
// * * * * * * * * * * * * * * * * * * * * * * * * * * * * * * * * * * * * * //

dimensions      [0 1 -1 0 0 0 0];

internalField   nonuniform List<vector> 
2500
(
(0.000207813 -0.000200859 0)
(0.0018667 -0.000570842 0)
(0.00447444 -0.000697829 0)
(0.00716321 -0.00060009 0)
(0.00922925 -0.000418991 0)
(0.0104506 -0.000264328 0)
(0.0109303 -0.000187993 0)
(0.0108812 -0.000185862 0)
(0.0104508 -0.000219848 0)
(0.0096344 -0.000245415 0)
(0.00828293 -0.000228674 0)
(0.00616404 -0.000150772 0)
(0.00302048 -2.66519e-06 0)
(-0.00139146 0.000221026 0)
(-0.0072764 0.000523439 0)
(-0.0147668 0.000908113 0)
(-0.0238852 0.00137505 0)
(-0.0345015 0.00191263 0)
(-0.0462979 0.00248761 0)
(-0.0587483 0.00303772 0)
(-0.0711243 0.00347318 0)
(-0.0825325 0.00368944 0)
(-0.0919835 0.00358807 0)
(-0.098495 0.00310384 0)
(-0.101202 0.00223106 0)
(-0.0994302 0.00102787 0)
(-0.0929118 -0.00037493 0)
(-0.0817202 -0.00181187 0)
(-0.0663232 -0.00310934 0)
(-0.0475779 -0.00410038 0)
(-0.0267031 -0.00464005 0)
(-0.0051809 -0.00460569 0)
(0.0154628 -0.0039353 0)
(0.0337582 -0.00278396 0)
(0.0483983 -0.00137095 0)
(0.0584275 0.000126042 0)
(0.0634661 0.0014972 0)
(0.0637267 0.00253446 0)
(0.060016 0.003112 0)
(0.0534993 0.00322489 0)
(0.0454086 0.00298644 0)
(0.036847 0.00254957 0)
(0.0286514 0.00204867 0)
(0.0213418 0.00157432 0)
(0.0151476 0.00117421 0)
(0.0100799 0.0008634 0)
(0.00602902 0.000631226 0)
(0.00290112 0.000436011 0)
(0.000795323 0.000192781 0)
(-8.20275e-05 -8.74287e-05 0)
(0.000566526 -0.00181785 0)
(0.00437508 -0.00431605 0)
(0.00958233 -0.00511652 0)
(0.014604 -0.00444054 0)
(0.0181616 -0.00299824 0)
(0.0197685 -0.00145772 0)
(0.019463 -0.000192384 0)
(0.0174566 0.000765689 0)
(0.0138343 0.0016253 0)
(0.00840733 0.00266516 0)
(0.000738905 0.00410256 0)
(-0.00972716 0.00604343 0)
(-0.0235199 0.00849198 0)
(-0.0410018 0.0113811 0)
(-0.0622531 0.0145724 0)
(-0.0869664 0.0178403 0)
(-0.114384 0.0208643 0)
(-0.143312 0.0232522 0)
(-0.172227 0.0245952 0)
(-0.19945 0.0245363 0)
(-0.223324 0.0228284 0)
(-0.242369 0.0193715 0)
(-0.255385 0.0142304 0)
(-0.261517 0.00763749 0)
(-0.260291 -1.72879e-05 0)
(-0.251637 -0.00821824 0)
(-0.23575 -0.0163948 0)
(-0.213079 -0.0239925 0)
(-0.184392 -0.0304484 0)
(-0.150775 -0.0352293 0)
(-0.113638 -0.0378729 0)
(-0.074681 -0.0380351 0)
(-0.0358127 -0.0355717 0)
(0.00103272 -0.0306659 0)
(0.03401 -0.0238161 0)
(0.0614425 -0.0157485 0)
(0.082013 -0.00728418 0)
(0.0950006 0.000694366 0)
(0.10027 0.00734379 0)
(0.0984366 0.012082 0)
(0.0909549 0.0147116 0)
(0.0796113 0.0154346 0)
(0.0662318 0.0147154 0)
(0.0524143 0.0131077 0)
(0.0393369 0.0111172 0)
(0.0276938 0.00911035 0)
(0.0177734 0.0072488 0)
(0.0096822 0.00543463 0)
(0.0037262 0.00334318 0)
(0.000329287 0.000918444 0)
(0.000785755 -0.00449511 0)
(0.00568886 -0.00969454 0)
(0.0117182 -0.0109168 0)
(0.016907 -0.00900556 0)
(0.0197645 -0.00542386 0)
(0.0197135 -0.00146964 0)
(0.0166719 0.00215271 0)
(0.0106375 0.00542316 0)
(0.00138505 0.00878081 0)
(-0.0116171 0.012792 0)
(-0.0290819 0.0178428 0)
(-0.051637 0.0240104 0)
(-0.0795878 0.0310833 0)
(-0.112705 0.0385978 0)
(-0.150115 0.045874 0)
(-0.190342 0.0520931 0)
(-0.231498 0.0564311 0)
(-0.271546 0.0582021 0)
(-0.308565 0.0569603 0)
(-0.340928 0.0525397 0)
(-0.367397 0.0450377 0)
(-0.387125 0.0347703 0)
(-0.399603 0.022213 0)
(-0.404572 0.00794541 0)
(-0.401951 -0.00738576 0)
(-0.391715 -0.0230981 0)
(-0.373907 -0.0384762 0)
(-0.348798 -0.0527312 0)
(-0.316869 -0.0650316 0)
(-0.278886 -0.0745389 0)
(-0.235942 -0.0804772 0)
(-0.189475 -0.0822368 0)
(-0.141244 -0.079488 0)
(-0.0932535 -0.0722866 0)
(-0.0476145 -0.0611806 0)
(-0.00632122 -0.0471758 0)
(0.0289026 -0.0315633 0)
(0.056699 -0.0157903 0)
(0.0763766 -0.00114702 0)
(0.0876621 0.0111701 0)
(0.0908184 0.0202535 0)
(0.0870991 0.0257396 0)
(0.0782097 0.0278609 0)
(0.0660401 0.0273069 0)
(0.0523904 0.0249764 0)
(0.0387217 0.0217248 0)
(0.0260341 0.0181223 0)
(0.014968 0.0142392 0)
(0.00625649 0.00958305 0)
(0.000705212 0.00358668 0)
(0.000917714 -0.00772684 0)
(0.0060686 -0.0155922 0)
(0.0115467 -0.0165377 0)
(0.0151645 -0.0124517 0)
(0.0154189 -0.00573366 0)
(0.011751 0.00169951 0)
(0.00393653 0.00894233 0)
(-0.0083734 0.0161032 0)
(-0.0258439 0.0239449 0)
(-0.0492903 0.0332185 0)
(-0.0793501 0.0442039 0)
(-0.116121 0.0565604 0)
(-0.158936 0.0694121 0)
(-0.20634 0.0815366 0)
(-0.256297 0.0916052 0)
(-0.306522 0.0984318 0)
(-0.354841 0.101167 0)
(-0.399445 0.0993926 0)
(-0.439006 0.0930945 0)
(-0.472641 0.0825701 0)
(-0.499823 0.0683182 0)
(-0.52026 0.0509447 0)
(-0.533761 0.0310805 0)
(-0.540153 0.00935117 0)
(-0.539273 -0.013584 0)
(-0.530945 -0.0369827 0)
(-0.515046 -0.0599947 0)
(-0.491542 -0.0816652 0)
(-0.460533 -0.100931 0)
(-0.422346 -0.116645 0)
(-0.377604 -0.127667 0)
(-0.327319 -0.133 0)
(-0.272962 -0.131951 0)
(-0.216469 -0.124316 0)
(-0.160156 -0.110528 0)
(-0.106503 -0.091697 0)
(-0.0578611 -0.0695232 0)
(-0.0160986 -0.0460102 0)
(0.0175906 -0.0230724 0)
(0.0426166 -0.00245206 0)
(0.0589167 0.0146142 0)
(0.0667512 0.0272029 0)
(0.0672317 0.0349392 0)
(0.0619137 0.0381649 0)
(0.0525868 0.0377843 0)
(0.0410426 0.0349329 0)
(0.028832 0.0305681 0)
(0.01719 0.0250318 0)
(0.00742141 0.0177401 0)
(0.000862119 0.00736589 0)
(0.000999783 -0.0110181 0)
(0.00561115 -0.0208276 0)
(0.00922958 -0.0203485 0)
(0.00967899 -0.0129023 0)
(0.00562115 -0.00193633 0)
(-0.00346265 0.0101263 0)
(-0.018037 0.0223848 0)
(-0.0388572 0.0352828 0)
(-0.0668574 0.0497601 0)
(-0.102689 0.0663425 0)
(-0.146252 0.0846577 0)
(-0.19647 0.103475 0)
(-0.251404 0.121064 0)
(-0.308608 0.135631 0)
(-0.365577 0.14569 0)
(-0.420129 0.150288 0)
(-0.47062 0.149059 0)
(-0.51597 0.142133 0)
(-0.555546 0.129958 0)
(-0.589013 0.113148 0)
(-0.616222 0.0923842 0)
(-0.637101 0.068338 0)
(-0.651568 0.0416275 0)
(-0.659532 0.0128684 0)
(-0.660909 -0.0172639 0)
(-0.655576 -0.0480302 0)
(-0.643304 -0.0785917 0)
(-0.623806 -0.107947 0)
(-0.596801 -0.134904 0)
(-0.562065 -0.158097 0)
(-0.519546 -0.176059 0)
(-0.469532 -0.187326 0)
(-0.412835 -0.190646 0)
(-0.350933 -0.185243 0)
(-0.286034 -0.171098 0)
(-0.220976 -0.149142 0)
(-0.158922 -0.121267 0)
(-0.102874 -0.09008 0)
(-0.05512 -0.0584309 0)
(-0.0168493 -0.0288373 0)
(0.0118134 -0.00307522 0)
(0.0312479 0.0176537 0)
(0.0420078 0.0326798 0)
(0.0452973 0.0418488 0)
(0.0426359 0.0456995 0)
(0.03575 0.0453002 0)
(0.0264027 0.0417605 0)
(0.0162523 0.0356006 0)
(0.00711044 0.0261579 0)
(0.000796558 0.0113832 0)
(0.000995785 -0.0139232 0)
(0.00416227 -0.024295 0)
(0.00458206 -0.0208792 0)
(0.00039749 -0.00872738 0)
(-0.00946446 0.00765867 0)
(-0.0255662 0.025597 0)
(-0.0486507 0.044486 0)
(-0.0796984 0.0649987 0)
(-0.119423 0.087792 0)
(-0.167643 0.112553 0)
(-0.223013 0.137826 0)
(-0.28323 0.161459 0)
(-0.345529 0.181231 0)
(-0.407216 0.195365 0)
(-0.466069 0.202789 0)
(-0.520503 0.203155 0)
(-0.569546 0.196694 0)
(-0.612692 0.183983 0)
(-0.649736 0.165754 0)
(-0.680682 0.142793 0)
(-0.705672 0.115876 0)
(-0.724894 0.0856903 0)
(-0.738547 0.0528584 0)
(-0.746843 0.0180126 0)
(-0.749914 -0.0182304 0)
(-0.747739 -0.0552812 0)
(-0.740101 -0.0924509 0)
(-0.72658 -0.128841 0)
(-0.706572 -0.163331 0)
(-0.679306 -0.19454 0)
(-0.643978 -0.220809 0)
(-0.599942 -0.240269 0)
(-0.546956 -0.25103 0)
(-0.485474 -0.251487 0)
(-0.416912 -0.240716 0)
(-0.343801 -0.218879 0)
(-0.269712 -0.187492 0)
(-0.198838 -0.149406 0)
(-0.135234 -0.108389 0)
(-0.0818982 -0.0683211 0)
(-0.0401207 -0.0323229 0)
(-0.00952625 -0.00225685 0)
(0.0110522 0.0211454 0)
(0.0228057 0.0376028 0)
(0.0271624 0.0473311 0)
(0.0257862 0.0511123 0)
(0.0204673 0.0499407 0)
(0.0130794 0.0443211 0)
(0.00574986 0.0334784 0)
(0.000591089 0.0148945 0)
(0.000839975 -0.0158649 0)
(0.00148475 -0.0247712 0)
(-0.00259392 -0.0166961 0)
(-0.0126835 0.00144811 0)
(-0.0295686 0.0244025 0)
(-0.0539235 0.0495697 0)
(-0.0866479 0.0766411 0)
(-0.128501 0.10608 0)
(-0.179358 0.137641 0)
(-0.237792 0.169775 0)
(-0.301275 0.200005 0)
(-0.366774 0.225695 0)
(-0.431378 0.244731 0)
(-0.492721 0.255852 0)
(-0.549144 0.258661 0)
(-0.599653 0.253442 0)
(-0.643773 0.240903 0)
(-0.6814 0.221948 0)
(-0.712709 0.197543 0)
(-0.7381 0.168656 0)
(-0.758106 0.136156 0)
(-0.773288 0.100764 0)
(-0.784229 0.0631228 0)
(-0.791443 0.0237915 0)
(-0.79524 -0.0168068 0)
(-0.795738 -0.058297 0)
(-0.792863 -0.100223 0)
(-0.786186 -0.141969 0)
(-0.774953 -0.182704 0)
(-0.758073 -0.221256 0)
(-0.734186 -0.256023 0)
(-0.701791 -0.284969 0)
(-0.659482 -0.305727 0)
(-0.606293 -0.315855 0)
(-0.542145 -0.31325 0)
(-0.468298 -0.296697 0)
(-0.387662 -0.266444 0)
(-0.304736 -0.22463 0)
(-0.225049 -0.175278 0)
(-0.154068 -0.123625 0)
(-0.0957954 -0.0748597 0)
(-0.0516923 -0.0327756 0)
(-0.0207434 0.000873938 0)
(-0.000740284 0.0259526 0)
(0.0103125 0.0427924 0)
(0.0143173 0.0520156 0)
(0.0132101 0.0544191 0)
(0.00901464 0.050356 0)
(0.00400142 0.0389286 0)
(0.00036231 0.017493 0)
(0.000465244 -0.0160983 0)
(-0.00257205 -0.020976 0)
(-0.0122822 -0.00662116 0)
(-0.0292295 0.0186545 0)
(-0.0539446 0.0492671 0)
(-0.087179 0.0828719 0)
(-0.129657 0.119117 0)
(-0.181387 0.157655 0)
(-0.241046 0.196936 0)
(-0.306048 0.234249 0)
(-0.373155 0.266545 0)
(-0.4392 0.291285 0)
(-0.501578 0.306907 0)
(-0.558445 0.312873 0)
(-0.608685 0.309473 0)
(-0.651794 0.297541 0)
(-0.687746 0.278205 0)
(-0.716892 0.252699 0)
(-0.73989 0.222264 0)
(-0.757593 0.188037 0)
(-0.770911 0.150954 0)
(-0.780736 0.111746 0)
(-0.787898 0.0709856 0)
(-0.793034 0.0290384 0)
(-0.796569 -0.013892 0)
(-0.798775 -0.0576324 0)
(-0.799716 -0.102017 0)
(-0.799083 -0.146809 0)
(-0.796235 -0.191572 0)
(-0.790127 -0.235525 0)
(-0.779261 -0.27741 0)
(-0.761697 -0.315394 0)
(-0.73517 -0.347036 0)
(-0.697376 -0.369387 0)
(-0.646466 -0.379282 0)
(-0.581701 -0.373882 0)
(-0.504108 -0.351469 0)
(-0.416958 -0.312296 0)
(-0.32582 -0.259203 0)
(-0.237857 -0.197611 0)
(-0.160268 -0.134594 0)
(-0.0982314 -0.0769983 0)
(-0.0533082 -0.02937 0)
(-0.023574 0.00687381 0)
(-0.00555632 0.0324522 0)
(0.00361782 0.0482961 0)
(0.00646071 0.0552501 0)
(0.00529083 0.0535894 0)
(0.00248818 0.0423778 0)
(0.000209302 0.0191576 0)
(-0.000171611 -0.0137892 0)
(-0.00796364 -0.0118355 0)
(-0.0241178 0.0101957 0)
(-0.0484322 0.0434979 0)
(-0.0812252 0.082632 0)
(-0.123133 0.12538 0)
(-0.174294 0.170813 0)
(-0.233636 0.217335 0)
(-0.298695 0.262095 0)
(-0.366136 0.301641 0)
(-0.432538 0.332911 0)
(-0.494995 0.353891 0)
(-0.55139 0.363778 0)
(-0.600423 0.362791 0)
(-0.641512 0.351874 0)
(-0.674688 0.332407 0)
(-0.70048 0.305958 0)
(-0.719791 0.274112 0)
(-0.733756 0.238336 0)
(-0.743571 0.199843 0)
(-0.750356 0.159538 0)
(-0.755115 0.118062 0)
(-0.758659 0.0758049 0)
(-0.761565 0.0329146 0)
(-0.764277 -0.0105762 0)
(-0.767123 -0.0546803 0)
(-0.770227 -0.0994853 0)
(-0.773497 -0.145062 0)
(-0.776608 -0.191342 0)
(-0.778883 -0.238007 0)
(-0.779158 -0.284349 0)
(-0.775646 -0.329095 0)
(-0.765883 -0.370234 0)
(-0.746841 -0.404889 0)
(-0.715281 -0.429373 0)
(-0.668363 -0.439575 0)
(-0.6045 -0.431711 0)
(-0.524358 -0.403373 0)
(-0.431633 -0.354712 0)
(-0.333157 -0.289371 0)
(-0.237972 -0.214564 0)
(-0.155216 -0.139707 0)
(-0.0912431 -0.0736173 0)
(-0.0473978 -0.0215289 0)
(-0.0204258 0.0158088 0)
(-0.00546962 0.0401176 0)
(0.00120667 0.0527816 0)
(0.00267506 0.0543894 0)
(0.00160642 0.0442035 0)
(0.000183967 0.0201689 0)
(-0.00107226 -0.00816947 0)
(-0.014414 0.00339955 0)
(-0.0373638 0.0341341 0)
(-0.0690377 0.0760355 0)
(-0.109492 0.124122 0)
(-0.158981 0.175934 0)
(-0.216762 0.2295 0)
(-0.280677 0.281861 0)
(-0.347453 0.329205 0)
(-0.413479 0.367863 0)
(-0.475524 0.395205 0)
(-0.531144 0.409982 0)
(-0.578792 0.412228 0)
(-0.617768 0.402941 0)
(-0.648129 0.383745 0)
(-0.67056 0.356585 0)
(-0.686205 0.323459 0)
(-0.696463 0.286205 0)
(-0.70277 0.24635 0)
(-0.706421 0.205015 0)
(-0.708492 0.162938 0)
(-0.70982 0.120549 0)
(-0.710986 0.0780092 0)
(-0.712378 0.0352997 0)
(-0.714316 -0.00767019 0)
(-0.71706 -0.0510436 0)
(-0.720738 -0.0950253 0)
(-0.725452 -0.139828 0)
(-0.731224 -0.185616 0)
(-0.737874 -0.232456 0)
(-0.744861 -0.280205 0)
(-0.751061 -0.328335 0)
(-0.754565 -0.375646 0)
(-0.752547 -0.419956 0)
(-0.741286 -0.457899 0)
(-0.716509 -0.484965 0)
(-0.674206 -0.495904 0)
(-0.61185 -0.485665 0)
(-0.529744 -0.450896 0)
(-0.432076 -0.39167 0)
(-0.327164 -0.312791 0)
(-0.226232 -0.223842 0)
(-0.140477 -0.137175 0)
(-0.077114 -0.0638147 0)
(-0.036589 -0.00930483 0)
(-0.0137795 0.0268086 0)
(-0.00262524 0.047152 0)
(0.00130423 0.0532533 0)
(0.00144725 0.0450213 0)
(0.000288232 0.0209468 0)
(-0.0021794 0.00130823 0)
(-0.021425 0.0250173 0)
(-0.0510187 0.065056 0)
(-0.0894966 0.115736 0)
(-0.136545 0.172604 0)
(-0.191808 0.23255 0)
(-0.253588 0.292323 0)
(-0.31888 0.347799 0)
(-0.384014 0.394673 0)
(-0.445472 0.429524 0)
(-0.500448 0.450444 0)
(-0.547084 0.45709 0)
(-0.584498 0.450397 0)
(-0.612717 0.432193 0)
(-0.632539 0.404804 0)
(-0.645325 0.370692 0)
(-0.652726 0.332134 0)
(-0.656403 0.291004 0)
(-0.657807 0.248665 0)
(-0.658061 0.205967 0)
(-0.657954 0.163357 0)
(-0.657985 0.120994 0)
(-0.658421 0.0788419 0)
(-0.659401 0.0367715 0)
(-0.661046 -0.00537289 0)
(-0.663496 -0.0477681 0)
(-0.666844 -0.0906022 0)
(-0.671277 -0.134072 0)
(-0.677024 -0.1784 0)
(-0.684287 -0.223838 0)
(-0.693124 -0.270634 0)
(-0.703261 -0.318889 0)
(-0.713823 -0.368304 0)
(-0.722983 -0.417825 0)
(-0.727638 -0.465211 0)
(-0.72336 -0.506628 0)
(-0.704822 -0.536529 0)
(-0.666781 -0.548173 0)
(-0.605649 -0.534957 0)
(-0.521356 -0.492473 0)
(-0.418867 -0.420879 0)
(-0.308419 -0.326723 0)
(-0.203739 -0.222886 0)
(-0.117977 -0.125395 0)
(-0.0584546 -0.0473719 0)
(-0.023643 0.0062465 0)
(-0.00618832 0.037764 0)
(0.000680094 0.0503933 0)
(0.00181025 0.0453575 0)
(0.000485837 0.0218745 0)
(-0.00335778 0.0148775 0)
(-0.0283498 0.0528167 0)
(-0.0639629 0.102336 0)
(-0.1082 0.161515 0)
(-0.160269 0.226357 0)
(-0.219096 0.292804 0)
(-0.28216 0.356345 0)
(-0.345947 0.412057 0)
(-0.406752 0.455605 0)
(-0.461409 0.484168 0)
(-0.507689 0.49676 0)
(-0.544438 0.49405 0)
(-0.571556 0.477952 0)
(-0.589876 0.451141 0)
(-0.600918 0.416573 0)
(-0.606558 0.377036 0)
(-0.608676 0.334826 0)
(-0.60888 0.291584 0)
(-0.608353 0.248301 0)
(-0.607839 0.205439 0)
(-0.607732 0.163114 0)
(-0.608171 0.121241 0)
(-0.609149 0.0796545 0)
(-0.610606 0.0381782 0)
(-0.612499 -0.00334527 0)
(-0.614869 -0.0450493 0)
(-0.617767 -0.0870401 0)
(-0.621344 -0.129419 0)
(-0.625852 -0.172338 0)
(-0.631624 -0.216036 0)
(-0.639049 -0.260857 0)
(-0.648485 -0.30721 0)
(-0.660035 -0.355465 0)
(-0.673165 -0.405682 0)
(-0.686218 -0.457108 0)
(-0.695954 -0.507466 0)
(-0.697326 -0.552323 0)
(-0.68384 -0.584876 0)
(-0.648847 -0.596576 0)
(-0.587705 -0.578903 0)
(-0.500256 -0.526296 0)
(-0.392715 -0.439521 0)
(-0.277812 -0.328016 0)
(-0.172118 -0.20926 0)
(-0.0902934 -0.10356 0)
(-0.0383202 -0.0252668 0)
(-0.011336 0.0229126 0)
(-0.000153862 0.04537 0)
(0.00229743 0.0453563 0)
(0.000720675 0.0231571 0)
(-0.00444345 0.0323863 0)
(-0.0345357 0.0861332 0)
(-0.0751395 0.144919 0)
(-0.123721 0.211868 0)
(-0.178946 0.283345 0)
(-0.23906 0.354219 0)
(-0.30096 0.418933 0)
(-0.360952 0.472182 0)
(-0.415572 0.509991 0)
(-0.462183 0.530396 0)
(-0.499254 0.53349 0)
(-0.526432 0.521052 0)
(-0.544454 0.495996 0)
(-0.5549 0.461764 0)
(-0.55982 0.421722 0)
(-0.561301 0.37869 0)
(-0.561115 0.334679 0)
(-0.560531 0.290872 0)
(-0.560284 0.247777 0)
(-0.560684 0.205457 0)
(-0.561761 0.163753 0)
(-0.5634 0.122433 0)
(-0.565444 0.0812835 0)
(-0.56774 0.04014 0)
(-0.570182 -0.00111245 0)
(-0.572768 -0.0425393 0)
(-0.575522 -0.0841672 0)
(-0.578507 -0.126009 0)
(-0.581881 -0.168111 0)
(-0.585903 -0.210584 0)
(-0.590978 -0.253649 0)
(-0.597656 -0.297699 0)
(-0.606549 -0.343336 0)
(-0.618123 -0.391274 0)
(-0.632282 -0.441994 0)
(-0.647694 -0.495078 0)
(-0.661027 -0.548254 0)
(-0.666509 -0.59639 0)
(-0.656382 -0.631033 0)
(-0.622566 -0.641263 0)
(-0.559477 -0.616329 0)
(-0.467303 -0.549804 0)
(-0.354344 -0.444129 0)
(-0.236687 -0.313373 0)
(-0.133897 -0.181256 0)
(-0.0609064 -0.0724176 0)
(-0.0200554 -0.000195825 0)
(-0.0022677 0.0369468 0)
(0.00247028 0.0446324 0)
(0.000940099 0.0247553 0)
(-0.00528806 0.053273 0)
(-0.0394219 0.123909 0)
(-0.0836901 0.191431 0)
(-0.134992 0.265059 0)
(-0.191455 0.34149 0)
(-0.250778 0.414569 0)
(-0.309545 0.478003 0)
(-0.364161 0.526497 0)
(-0.411594 0.556747 0)
(-0.449855 0.567849 0)
(-0.478192 0.561092 0)
(-0.497083 0.539401 0)
(-0.508023 0.506616 0)
(-0.51314 0.466721 0)
(-0.514694 0.423176 0)
(-0.514642 0.378501 0)
(-0.514373 0.334181 0)
(-0.514657 0.290827 0)
(-0.515763 0.248481 0)
(-0.517643 0.206902 0)
(-0.520102 0.165777 0)
(-0.522924 0.124838 0)
(-0.525927 0.0838951 0)
(-0.528971 0.0428339 0)
(-0.531967 0.0015941 0)
(-0.534918 -0.0398376 0)
(-0.537847 -0.0814447 0)
(-0.540743 -0.123199 0)
(-0.54366 -0.165071 0)
(-0.546713 -0.207046 0)
(-0.550129 -0.249174 0)
(-0.554302 -0.291653 0)
(-0.559846 -0.334931 0)
(-0.567598 -0.379782 0)
(-0.578421 -0.427258 0)
(-0.592682 -0.478341 0)
(-0.609369 -0.533061 0)
(-0.625045 -0.589073 0)
(-0.63315 -0.640172 0)
(-0.624463 -0.675678 0)
(-0.589356 -0.68174 0)
(-0.521674 -0.64517 0)
(-0.422915 -0.559389 0)
(-0.304695 -0.430483 0)
(-0.187309 -0.279818 0)
(-0.0928442 -0.138945 0)
(-0.0339619 -0.03518 0)
(-0.00650226 0.0231777 0)
(0.00201305 0.042316 0)
(0.00111661 0.0264189 0)
(-0.00577029 0.0766321 0)
(-0.042596 0.16481 0)
(-0.0890413 0.240327 0)
(-0.141398 0.319317 0)
(-0.197316 0.398893 0)
(-0.254132 0.472054 0)
(-0.308369 0.532108 0)
(-0.35673 0.574103 0)
(-0.396742 0.595653 0)
(-0.427131 0.597055 0)
(-0.447934 0.580855 0)
(-0.460378 0.551068 0)
(-0.466522 0.512253 0)
(-0.468732 0.468617 0)
(-0.469155 0.423366 0)
(-0.469348 0.378458 0)
(-0.470178 0.33473 0)
(-0.471926 0.292253 0)
(-0.474501 0.250718 0)
(-0.477652 0.209728 0)
(-0.48112 0.168948 0)
(-0.484707 0.128155 0)
(-0.48829 0.0872266 0)
(-0.49179 0.0461047 0)
(-0.495173 0.00477229 0)
(-0.49847 -0.0367607 0)
(-0.50171 -0.0784698 0)
(-0.504859 -0.120327 0)
(-0.507909 -0.162278 0)
(-0.510859 -0.204256 0)
(-0.513747 -0.2462 0)
(-0.516709 -0.288106 0)
(-0.520082 -0.330126 0)
(-0.52452 -0.372719 0)
(-0.531036 -0.416833 0)
(-0.540841 -0.463928 0)
(-0.554779 -0.51555 0)
(-0.572182 -0.572149 0)
(-0.589368 -0.631112 0)
(-0.598642 -0.68464 0)
(-0.58905 -0.718947 0)
(-0.549579 -0.716464 0)
(-0.474277 -0.66176 0)
(-0.367355 -0.549927 0)
(-0.245343 -0.394023 0)
(-0.13335 -0.226072 0)
(-0.0540412 -0.0858261 0)
(-0.0133491 0.0016447 0)
(0.000773967 0.0372263 0)
(0.00125405 0.0277889 0)
(-0.00581456 0.10133 0)
(-0.0438254 0.207357 0)
(-0.0909291 0.290029 0)
(-0.14277 0.372992 0)
(-0.196622 0.453973 0)
(-0.24965 0.525376 0)
(-0.298518 0.580427 0)
(-0.340362 0.614792 0)
(-0.37333 0.627173 0)
(-0.396864 0.619155 0)
(-0.411716 0.594513 0)
(-0.419682 0.558184 0)
(-0.423108 0.515149 0)
(-0.424294 0.469488 0)
(-0.425018 0.423868 0)
(-0.426315 0.379547 0)
(-0.428547 0.336737 0)
(-0.431628 0.2951 0)
(-0.435277 0.254145 0)
(-0.439198 0.213455 0)
(-0.443174 0.172765 0)
(-0.447088 0.131936 0)
(-0.450898 0.0909171 0)
(-0.454594 0.0496954 0)
(-0.458181 0.00827415 0)
(-0.46172 -0.033336 0)
(-0.46525 -0.0751206 0)
(-0.468744 -0.117071 0)
(-0.472175 -0.159151 0)
(-0.475494 -0.201302 0)
(-0.478638 -0.243435 0)
(-0.481557 -0.285442 0)
(-0.484296 -0.327249 0)
(-0.487111 -0.368944 0)
(-0.490642 -0.41101 0)
(-0.496061 -0.454582 0)
(-0.504955 -0.501568 0)
(-0.518634 -0.554164 0)
(-0.536615 -0.613229 0)
(-0.554649 -0.675428 0)
(-0.563494 -0.730322 0)
(-0.550178 -0.759778 0)
(-0.502644 -0.741957 0)
(-0.41657 -0.66031 0)
(-0.301082 -0.515052 0)
(-0.179331 -0.331225 0)
(-0.0805197 -0.154852 0)
(-0.0231569 -0.0304527 0)
(-0.00128057 0.0280313 0)
(0.00137188 0.0284883 0)
(-0.00539759 0.126124 0)
(-0.0430539 0.250042 0)
(-0.0893724 0.339048 0)
(-0.139317 0.42466 0)
(-0.189904 0.505521 0)
(-0.238294 0.573723 0)
(-0.28144 0.622685 0)
(-0.316982 0.648888 0)
(-0.343691 0.652232 0)
(-0.361662 0.635597 0)
(-0.372204 0.603866 0)
(-0.377446 0.562647 0)
(-0.379745 0.51701 0)
(-0.381099 0.470611 0)
(-0.382789 0.42541 0)
(-0.385348 0.381966 0)
(-0.388759 0.339997 0)
(-0.392737 0.298927 0)
(-0.396961 0.258235 0)
(-0.401191 0.217582 0)
(-0.405303 0.176802 0)
(-0.409269 0.135846 0)
(-0.413112 0.0947125 0)
(-0.416862 0.0534121 0)
(-0.420544 0.0119496 0)
(-0.424231 -0.0296747 0)
(-0.427972 -0.0714603 0)
(-0.431752 -0.113422 0)
(-0.435548 -0.155553 0)
(-0.439317 -0.197828 0)
(-0.442978 -0.240187 0)
(-0.446417 -0.282519 0)
(-0.449508 -0.324667 0)
(-0.452194 -0.36649 0)
(-0.454642 -0.408008 0)
(-0.457499 -0.449716 0)
(-0.462105 -0.493001 0)
(-0.470423 -0.540371 0)
(-0.484185 -0.594771 0)
(-0.502888 -0.657218 0)
(-0.52116 -0.722765 0)
(-0.527478 -0.776792 0)
(-0.506697 -0.795286 0)
(-0.446869 -0.752095 0)
(-0.347723 -0.632557 0)
(-0.225989 -0.448186 0)
(-0.112346 -0.242565 0)
(-0.0364038 -0.076113 0)
(-0.00422463 0.0132293 0)
(0.00146146 0.0281073 0)
(-0.00454403 0.149775 0)
(-0.040374 0.291428 0)
(-0.0846134 0.386061 0)
(-0.131521 0.473176 0)
(-0.17797 0.552704 0)
(-0.221254 0.616709 0)
(-0.2587 0.65902 0)
(-0.288474 0.677065 0)
(-0.309917 0.671976 0)
(-0.323649 0.647854 0)
(-0.33134 0.610498 0)
(-0.335211 0.565894 0)
(-0.337407 0.518908 0)
(-0.339494 0.472572 0)
(-0.342265 0.428106 0)
(-0.345857 0.385475 0)
(-0.350034 0.344075 0)
(-0.354461 0.303256 0)
(-0.358873 0.262565 0)
(-0.363129 0.221778 0)
(-0.367195 0.180831 0)
(-0.371108 0.139732 0)
(-0.374927 0.098508 0)
(-0.378695 0.0571712 0)
(-0.382438 0.0157169 0)
(-0.386225 -0.0258676 0)
(-0.390112 -0.0675934 0)
(-0.394092 -0.109493 0)
(-0.398149 -0.151584 0)
(-0.402262 -0.193874 0)
(-0.406374 -0.236343 0)
(-0.410385 -0.278932 0)
(-0.414138 -0.321512 0)
(-0.417441 -0.363879 0)
(-0.42015 -0.405807 0)
(-0.42236 -0.447247 0)
(-0.424732 -0.488766 0)
(-0.428837 -0.532136 0)
(-0.437088 -0.580651 0)
(-0.451549 -0.63808 0)
(-0.471185 -0.705088 0)
(-0.488593 -0.773485 0)
(-0.489267 -0.822049 0)
(-0.456321 -0.819429 0)
(-0.380127 -0.737011 0)
(-0.267995 -0.568464 0)
(-0.14695 -0.346014 0)
(-0.0534045 -0.137552 0)
(-0.00822345 -0.00881346 0)
(0.00147481 0.0261898 0)
(-0.00331648 0.171139 0)
(-0.0359878 0.330217 0)
(-0.0770446 0.429959 0)
(-0.120028 0.517681 0)
(-0.161765 0.595017 0)
(-0.199774 0.654276 0)
(-0.2318 0.689847 0)
(-0.256504 0.700169 0)
(-0.273705 0.687567 0)
(-0.284386 0.657227 0)
(-0.290374 0.615626 0)
(-0.293776 0.568857 0)
(-0.296393 0.521364 0)
(-0.299338 0.475475 0)
(-0.302999 0.43174 0)
(-0.307265 0.389688 0)
(-0.31182 0.348558 0)
(-0.316373 0.307736 0)
(-0.320753 0.266886 0)
(-0.324915 0.225898 0)
(-0.328889 0.18478 0)
(-0.332743 0.14357 0)
(-0.33655 0.102297 0)
(-0.340351 0.0609651 0)
(-0.344159 0.0195561 0)
(-0.348033 -0.0219552 0)
(-0.352035 -0.0635877 0)
(-0.356162 -0.105386 0)
(-0.360397 -0.147381 0)
(-0.364736 -0.189599 0)
(-0.36915 -0.232059 0)
(-0.373578 -0.274751 0)
(-0.377903 -0.317614 0)
(-0.381939 -0.360498 0)
(-0.385434 -0.40314 0)
(-0.388164 -0.445225 0)
(-0.390176 -0.486656 0)
(-0.392227 -0.528155 0)
(-0.396229 -0.572126 0)
(-0.40509 -0.622981 0)
(-0.420965 -0.685243 0)
(-0.441475 -0.757905 0)
(-0.455949 -0.826707 0)
(-0.446353 -0.860848 0)
(-0.395719 -0.821505 0)
(-0.300788 -0.683213 0)
(-0.180781 -0.459525 0)
(-0.0736106 -0.215123 0)
(-0.0135236 -0.0398826 0)
(0.00139047 0.0222548 0)
(-0.00180385 0.189236 0)
(-0.0301664 0.365294 0)
(-0.0671395 0.469857 0)
(-0.105548 0.557576 0)
(-0.142245 0.63222 0)
(-0.175022 0.686589 0)
(-0.202051 0.715728 0)
(-0.222426 0.719071 0)
(-0.236319 0.700047 0)
(-0.244908 0.66474 0)
(-0.249996 0.620075 0)
(-0.253439 0.572031 0)
(-0.256641 0.52451 0)
(-0.260317 0.479161 0)
(-0.264572 0.43599 0)
(-0.269175 0.394251 0)
(-0.273826 0.35315 0)
(-0.27832 0.31217 0)
(-0.282578 0.271099 0)
(-0.286622 0.229913 0)
(-0.290516 0.188659 0)
(-0.294339 0.147383 0)
(-0.298158 0.106104 0)
(-0.30201 0.0648109 0)
(-0.305894 0.0234732 0)
(-0.309853 -0.017945 0)
(-0.313961 -0.0594664 0)
(-0.318216 -0.101145 0)
(-0.322594 -0.143018 0)
(-0.327098 -0.185124 0)
(-0.331715 -0.2275 0)
(-0.336414 -0.270173 0)
(-0.34113 -0.313142 0)
(-0.345732 -0.356342 0)
(-0.350002 -0.39959 0)
(-0.353631 -0.442546 0)
(-0.356332 -0.484793 0)
(-0.358157 -0.526228 0)
(-0.360064 -0.56795 0)
(-0.364472 -0.61341 0)
(-0.374836 -0.66848 0)
(-0.392848 -0.737835 0)
(-0.413312 -0.816162 0)
(-0.420855 -0.878791 0)
(-0.394611 -0.882589 0)
(-0.321483 -0.784919 0)
(-0.210279 -0.576031 0)
(-0.0954257 -0.306786 0)
(-0.0203507 -0.0816552 0)
(0.00125063 0.0158186 0)
(-0.000110305 0.203289 0)
(-0.0232163 0.395735 0)
(-0.0553958 0.505083 0)
(-0.0887816 0.592484 0)
(-0.120294 0.664266 0)
(-0.148017 0.713948 0)
(-0.170525 0.737258 0)
(-0.187259 0.734567 0)
(-0.198619 0.710259 0)
(-0.205822 0.671125 0)
(-0.210507 0.624328 0)
(-0.214206 0.575594 0)
(-0.217942 0.528259 0)
(-0.222121 0.483375 0)
(-0.226681 0.440552 0)
(-0.231368 0.398904 0)
(-0.235945 0.357679 0)
(-0.240293 0.316475 0)
(-0.244407 0.275183 0)
(-0.248345 0.233836 0)
(-0.252183 0.192495 0)
(-0.255992 0.151197 0)
(-0.259835 0.109945 0)
(-0.263741 0.0687187 0)
(-0.267701 0.0274733 0)
(-0.271743 -0.0138351 0)
(-0.275955 -0.0552307 0)
(-0.280339 -0.0967778 0)
(-0.284858 -0.138516 0)
(-0.289515 -0.180492 0)
(-0.294304 -0.22275 0)
(-0.299208 -0.265338 0)
(-0.304194 -0.308292 0)
(-0.309188 -0.351617 0)
(-0.314041 -0.395231 0)
(-0.318498 -0.438897 0)
(-0.322192 -0.482168 0)
(-0.324792 -0.524524 0)
(-0.326436 -0.565982 0)
(-0.328487 -0.608395 0)
(-0.334088 -0.656896 0)
(-0.347049 -0.719031 0)
(-0.367361 -0.797736 0)
(-0.38497 -0.878342 0)
(-0.379088 -0.92024 0)
(-0.329155 -0.868462 0)
(-0.232687 -0.688517 0)
(-0.116692 -0.408548 0)
(-0.0287046 -0.135281 0)
(0.00111762 0.00636941 0)
(0.00165445 0.212739 0)
(-0.0154541 0.420806 0)
(-0.0422958 0.535143 0)
(-0.0703723 0.622196 0)
(-0.0966856 0.691235 0)
(-0.119596 0.736701 0)
(-0.138038 0.754999 0)
(-0.151718 0.747319 0)
(-0.161136 0.718833 0)
(-0.167426 0.676849 0)
(-0.171969 0.628615 0)
(-0.175951 0.579536 0)
(-0.180069 0.532425 0)
(-0.184513 0.487862 0)
(-0.189147 0.445193 0)
(-0.193749 0.403483 0)
(-0.198159 0.362058 0)
(-0.20233 0.320624 0)
(-0.2063 0.279146 0)
(-0.210143 0.237685 0)
(-0.213933 0.196301 0)
(-0.21773 0.155016 0)
(-0.221589 0.113821 0)
(-0.225539 0.0726837 0)
(-0.229567 0.0315519 0)
(-0.233682 -0.00962695 0)
(-0.237992 -0.0508771 0)
(-0.242513 -0.0922756 0)
(-0.247183 -0.133866 0)
(-0.252009 -0.175698 0)
(-0.25698 -0.217822 0)
(-0.262087 -0.260293 0)
(-0.267309 -0.303168 0)
(-0.272605 -0.346493 0)
(-0.277888 -0.39027 0)
(-0.282983 -0.434383 0)
(-0.287583 -0.478499 0)
(-0.291263 -0.522029 0)
(-0.293696 -0.564382 0)
(-0.295259 -0.605969 0)
(-0.29799 -0.650118 0)
(-0.305924 -0.704468 0)
(-0.322525 -0.777505 0)
(-0.343839 -0.865725 0)
(-0.352706 -0.937196 0)
(-0.3246 -0.931468 0)
(-0.246484 -0.791123 0)
(-0.135354 -0.515361 0)
(-0.0381943 -0.200533 0)
(0.000969208 -0.0065624 0)
(0.00338447 0.217275 0)
(-0.00718859 0.439922 0)
(-0.0282883 0.559695 0)
(-0.0508835 0.646625 0)
(-0.0720582 0.71327 0)
(-0.0904073 0.755192 0)
(-0.10518 0.769427 0)
(-0.116263 0.757835 0)
(-0.124156 0.726198 0)
(-0.129814 0.682174 0)
(-0.134316 0.632996 0)
(-0.138509 0.583748 0)
(-0.14283 0.536808 0)
(-0.147334 0.492411 0)
(-0.151875 0.449748 0)
(-0.156287 0.407889 0)
(-0.160481 0.366246 0)
(-0.16446 0.32461 0)
(-0.168286 0.282991 0)
(-0.172033 0.241462 0)
(-0.175766 0.200073 0)
(-0.179537 0.158831 0)
(-0.183393 0.117716 0)
(-0.18737 0.0766902 0)
(-0.191451 0.0356967 0)
(-0.195623 -0.00532574 0)
(-0.200022 -0.0464044 0)
(-0.204684 -0.0876286 0)
(-0.209521 -0.12905 0)
(-0.214536 -0.17072 0)
(-0.219717 -0.212693 0)
(-0.225053 -0.255026 0)
(-0.230529 -0.297787 0)
(-0.236118 -0.341044 0)
(-0.241768 -0.384851 0)
(-0.24737 -0.42919 0)
(-0.252706 -0.473872 0)
(-0.257407 -0.518416 0)
(-0.260999 -0.562053 0)
(-0.263247 -0.604274 0)
(-0.265026 -0.646497 0)
(-0.269426 -0.694656 0)
(-0.281238 -0.759428 0)
(-0.301649 -0.846915 0)
(-0.319397 -0.937871 0)
(-0.30984 -0.974016 0)
(-0.25142 -0.879726 0)
(-0.149931 -0.62209 0)
(-0.0480895 -0.275647 0)
(0.000664926 -0.0234217 0)
(0.00493824 0.216709 0)
(0.0012749 0.452741 0)
(-0.0137726 0.578479 0)
(-0.030796 0.665757 0)
(-0.0469253 0.730536 0)
(-0.0609391 0.769721 0)
(-0.0723518 0.780913 0)
(-0.0811628 0.766476 0)
(-0.0877952 0.732621 0)
(-0.0929655 0.687219 0)
(-0.0974251 0.637439 0)
(-0.101718 0.588091 0)
(-0.106077 0.541229 0)
(-0.110484 0.496864 0)
(-0.114817 0.454107 0)
(-0.118972 0.412064 0)
(-0.122919 0.37022 0)
(-0.126694 0.328423 0)
(-0.130365 0.28671 0)
(-0.134 0.245154 0)
(-0.137657 0.203792 0)
(-0.141378 0.16262 0)
(-0.145208 0.121608 0)
(-0.149189 0.0807174 0)
(-0.153308 0.0398926 0)
(-0.157518 -0.000935942 0)
(-0.161993 -0.0418129 0)
(-0.166797 -0.0828273 0)
(-0.171813 -0.124048 0)
(-0.177036 -0.165529 0)
(-0.182455 -0.207327 0)
(-0.188057 -0.249501 0)
(-0.193825 -0.292119 0)
(-0.19974 -0.335265 0)
(-0.205767 -0.379022 0)
(-0.211833 -0.42344 0)
(-0.217793 -0.468447 0)
(-0.223371 -0.513719 0)
(-0.228125 -0.558558 0)
(-0.231576 -0.602052 0)
(-0.233771 -0.644187 0)
(-0.236498 -0.688565 0)
(-0.244194 -0.745245 0)
(-0.261234 -0.826602 0)
(-0.28281 -0.927216 0)
(-0.287539 -0.998022 0)
(-0.248272 -0.952072 0)
(-0.159687 -0.724236 0)
(-0.0575569 -0.35786 0)
(-4.98446e-06 -0.0446343 0)
(0.00616082 0.211271 0)
(0.00957335 0.458821 0)
(0.000926557 0.591406 0)
(-0.0105104 0.679602 0)
(-0.0216935 0.743187 0)
(-0.0315477 0.780519 0)
(-0.0398145 0.789714 0)
(-0.0465552 0.773466 0)
(-0.0520672 0.73824 0)
(-0.0567945 0.69201 0)
(-0.0611624 0.64187 0)
(-0.0654401 0.592433 0)
(-0.0697033 0.545548 0)
(-0.0738988 0.501108 0)
(-0.0779438 0.458199 0)
(-0.0817956 0.41597 0)
(-0.0854691 0.373958 0)
(-0.0890188 0.332048 0)
(-0.092512 0.290286 0)
(-0.0960106 0.248739 0)
(-0.0995637 0.207434 0)
(-0.10321 0.166358 0)