/*--------------------------------*- C++ -*----------------------------------*\
  =========                 |
  \\      /  F ield         | OpenFOAM: The Open Source CFD Toolbox
   \\    /   O peration     | Website:  https://openfoam.org
    \\  /    A nd           | Version:  7
     \\/     M anipulation  |
\*---------------------------------------------------------------------------*/
FoamFile
{
    version     2.0;
    format      ascii;
    class       volScalarField;
    location    "1300";
    object      p;
}
// * * * * * * * * * * * * * * * * * * * * * * * * * * * * * * * * * * * * * //

dimensions      [0 2 -2 0 0 0 0];

internalField   nonuniform List<scalar> 
2500
(
1.50139e-08
7.08596e-05
-9.10107e-06
-0.000307955
-0.000782377
-0.00136994
-0.00203047
-0.00275943
-0.00358253
-0.00454043
-0.00567319
-0.00701071
-0.00856989
-0.0103504
-0.012329
-0.0144513
-0.0166253
-0.0187194
-0.0205685
-0.0219908
-0.0228113
-0.0228907
-0.0221537
-0.0206167
-0.0184057
-0.0157469
-0.0129618
-0.0104678
-0.00872668
-0.00817627
-0.00914941
-0.0117828
-0.015964
-0.0213975
-0.0276236
-0.0340808
-0.0402404
-0.0457015
-0.0502332
-0.0537606
-0.0563336
-0.0580871
-0.0591959
-0.0598357
-0.0601585
-0.0602805
-0.0602796
-0.0601983
-0.060059
-0.0599198
-6.9258e-05
3.53814e-06
-8.02939e-05
-0.000376781
-0.000829197
-0.00137339
-0.00197422
-0.00263314
-0.00337875
-0.00425136
-0.0052898
-0.006524
-0.00797467
-0.00964956
-0.011537
-0.0136003
-0.0157684
-0.0179299
-0.0199319
-0.0215908
-0.0227141
-0.0231319
-0.0227305
-0.0214857
-0.0194924
-0.0169678
-0.0142488
-0.0117711
-0.0100153
-0.00943823
-0.0103885
-0.0130251
-0.017264
-0.0227555
-0.0289975
-0.0354417
-0.0415339
-0.0468333
-0.0511006
-0.0543091
-0.0565764
-0.0580843
-0.0590262
-0.0595747
-0.0598663
-0.059998
-0.0600319
-0.0599973
-0.0598958
-0.0597641
-1.92945e-05
4.93859e-05
-5.75519e-05
-0.000380048
-0.000832481
-0.00133909
-0.0018697
-0.00243711
-0.00308239
-0.00385308
-0.0047933
-0.00594342
-0.00734145
-0.00902184
-0.0110046
-0.0132785
-0.0157834
-0.0183975
-0.0209384
-0.0231797
-0.0248821
-0.0258318
-0.0258772
-0.0249672
-0.0231942
-0.0207856
-0.0180783
-0.015506
-0.0135614
-0.0127249
-0.0133782
-0.0157195
-0.0197038
-0.0250292
-0.0311868
-0.0375553
-0.043557
-0.0487496
-0.0528527
-0.0558008
-0.0577242
-0.0588684
-0.059487
-0.0597848
-0.0599063
-0.0599411
-0.0599359
-0.0599004
-0.0598045
-0.0596602
0.000227907
0.000265957
0.000101493
-0.000279834
-0.000755652
-0.00123699
-0.00170291
-0.00218551
-0.00274584
-0.00345498
-0.0043863
-0.00561927
-0.00723875
-0.00932171
-0.0119111
-0.0149867
-0.0184454
-0.022099
-0.0256916
-0.0289325
-0.0315373
-0.0332666
-0.0339555
-0.0335405
-0.0320934
-0.0298169
-0.0270235
-0.0241341
-0.0216438
-0.0200592
-0.0198177
-0.0211991
-0.024252
-0.0287635
-0.0342831
-0.0402075
-0.0459146
-0.0508852
-0.0548241
-0.0576414
-0.0593886
-0.0602773
-0.0605887
-0.060583
-0.0604445
-0.0602829
-0.0601486
-0.0600427
-0.0599127
-0.0597479
0.00070721
0.000677084
0.00041788
-4.43147e-05
-0.000555536
-0.00102944
-0.00146053
-0.00190879
-0.0024749
-0.00328083
-0.0044636
-0.00617105
-0.00854245
-0.0116734
-0.0155781
-0.020166
-0.0252405
-0.0305208
-0.0356763
-0.0403662
-0.0442759
-0.047148
-0.0488042
-0.04916
-0.0482451
-0.046205
-0.0433049
-0.03993
-0.0365525
-0.0336874
-0.031827
-0.0313594
-0.0324864
-0.0351645
-0.0390934
-0.0437681
-0.0485883
-0.0529932
-0.0565831
-0.0591706
-0.0607894
-0.061596
-0.0617815
-0.0615963
-0.0612594
-0.0609142
-0.0606342
-0.0604326
-0.0602563
-0.0600794
0.00146239
0.00132834
0.000948945
0.000397312
-0.000168861
-0.000675394
-0.00114696
-0.0016964
-0.00249296
-0.00374281
-0.0056716
-0.00849338
-0.0123638
-0.017334
-0.023324
-0.0301258
-0.0374301
-0.0448652
-0.0520379
-0.0585683
-0.064119
-0.0684194
-0.0712817
-0.0726073
-0.072394
-0.0707261
-0.0678018
-0.0639419
-0.059554
-0.0551137
-0.051124
-0.0480559
-0.0462752
-0.0459681
-0.0470886
-0.0493531
-0.0522988
-0.0553961
-0.058178
-0.0603349
-0.0617462
-0.0624608
-0.0626427
-0.0624545
-0.062068
-0.0616423
-0.0612765
-0.0610081
-0.0608028
-0.0606314
0.00253189
0.00226906
0.00176026
0.00110873
0.00045178
-0.000167482
-0.000837191
-0.00175301
-0.0031844
-0.00544146
-0.00882615
-0.0135677
-0.019763
-0.0273454
-0.0360899
-0.0456484
-0.0555965
-0.065481
-0.0748599
-0.0833331
-0.0905656
-0.0963016
-0.100369
-0.102676
-0.103218
-0.102046
-0.0992861
-0.0951725
-0.0900077
-0.0841651
-0.0780767
-0.0722083
-0.0670177
-0.0628946
-0.0600909
-0.0586635
-0.0584537
-0.0591233
-0.0602446
-0.061416
-0.0623492
-0.0629052
-0.0630827
-0.0629696
-0.0626699
-0.0622949
-0.0619443
-0.0616755
-0.0614798
-0.0613347
0.00392211
0.00352315
0.00288411
0.00211039
0.00129512
0.000410542
-0.000728627
-0.00243155
-0.00508331
-0.00907794
-0.014731
-0.0221987
-0.031434
-0.0421926
-0.0540753
-0.0665886
-0.0792055
-0.0914163
-0.102766
-0.112876
-0.121461
-0.128321
-0.133331
-0.136429
-0.137634
-0.137006
-0.134616
-0.13061
-0.125171
-0.118532
-0.110979
-0.102862
-0.0945953
-0.0866344
-0.0794397
-0.0734117
-0.0688146
-0.0657124
-0.0639476
-0.0631877
-0.063029
-0.0631104
-0.0631874
-0.0631531
-0.0630038
-0.0627809
-0.0625471
-0.0623562
-0.0622161
-0.0621154
0.00557829
0.00505011
0.00427584
0.00333744
0.0022393
0.0008432
-0.00116304
-0.00421539
-0.00879118
-0.0152987
-0.0239677
-0.0347836
-0.047485
-0.061614
-0.0765933
-0.091806
-0.106664
-0.120655
-0.133372
-0.144514
-0.153886
-0.161377
-0.16693
-0.170524
-0.172205
-0.172069
-0.170161
-0.16656
-0.161351
-0.154636
-0.146539
-0.137234
-0.126965
-0.116081
-0.105044
-0.0944281
-0.084851
-0.0768719
-0.0708524
-0.0668434
-0.0645668
-0.0635247
-0.0631834
-0.0631282
-0.0631289
-0.0631094
-0.0630647
-0.0630179
-0.0629729
-0.0629278
0.00735001
0.00670681
0.00578616
0.00460112
0.00302291
0.000772663
-0.00260169
-0.00764099
-0.0148448
-0.0245303
-0.0367335
-0.0511886
-0.06738
-0.0846366
-0.102238
-0.119503
-0.135859
-0.150867
-0.164224
-0.175749
-0.185357
-0.193026
-0.198765
-0.202588
-0.204561
-0.204807
-0.203363
-0.200271
-0.195565
-0.189262
-0.181373
-0.171912
-0.160929
-0.148553
-0.135059
-0.120926
-0.106862
-0.0937588
-0.0825395
-0.0739112
-0.0681236
-0.0648761
-0.0634672
-0.0631058
-0.063181
-0.0633626
-0.0635427
-0.0636807
-0.0637558
-0.0637704
0.00897926
0.00824003
0.00713751
0.00557286
0.00324895
-0.000267222
-0.00555101
-0.0131847
-0.0235859
-0.0368674
-0.0527837
-0.0707742
-0.0900736
-0.109846
-0.129306
-0.147802
-0.16486
-0.180175
-0.193587
-0.205035
-0.214529
-0.222113
-0.227837
-0.231738
-0.233881
-0.234393
-0.233308
-0.230657
-0.226456
-0.220698
-0.213346
-0.20433
-0.193566
-0.180986
-0.166606
-0.150627
-0.13354
-0.116212
-0.099856
-0.0858071
-0.0751367
-0.0682388
-0.0646693
-0.0634007
-0.0633282
-0.0636714
-0.0640702
-0.0644058
-0.0646109
-0.0646857
0.0101126
0.0092822
0.0079307
0.00580915
0.0024329
-0.00277439
-0.0104606
-0.0211546
-0.0350796
-0.0520508
-0.0714932
-0.0925582
-0.114288
-0.135772
-0.156265
-0.175239
-0.192377
-0.207535
-0.220683
-0.231858
-0.241126
-0.248561
-0.254227
-0.258165
-0.260425
-0.26112
-0.260275
-0.257921
-0.254078
-0.248746
-0.241891
-0.233435
-0.223252
-0.211177
-0.19704
-0.180752
-0.162434
-0.142602
-0.122308
-0.103129
-0.0868606
-0.0749189
-0.0677208
-0.0645025
-0.0637863
-0.0641526
-0.0647481
-0.065276
-0.0656131
-0.0657512
0.0103212
0.00938545
0.00769382
0.00481652
8.5759e-05
-0.0071812
-0.0176273
-0.0316235
-0.0491034
-0.069531
-0.0920053
-0.115448
-0.138807
-0.161209
-0.182045
-0.200966
-0.217831
-0.232639
-0.245453
-0.256362
-0.26545
-0.272793
-0.278446
-0.282439
-0.284806
-0.285638
-0.284946
-0.282763
-0.279115
-0.274017
-0.267458
-0.25939
-0.249716
-0.238272
-0.224832
-0.209139
-0.191003
-0.170477
-0.148113
-0.125195
-0.103738
-0.086035
-0.073763
-0.0671472
-0.0648703
-0.064915
-0.0656597
-0.0663718
-0.0668493
-0.0670626
0.00916033
0.00809386
0.00596037
0.00214004
-0.00419155
-0.0137664
-0.0271342
-0.0444164
-0.0651975
-0.0885859
-0.113408
-0.138452
-0.162683
-0.185366
-0.206082
-0.224675
-0.241155
-0.255614
-0.268165
-0.278907
-0.287917
-0.295253
-0.300952
-0.305032
-0.307507
-0.308453
-0.30787
-0.305787
-0.30223
-0.29722
-0.29077
-0.282866
-0.273461
-0.262449
-0.249645
-0.234776
-0.217509
-0.197557
-0.174914
-0.150208
-0.125044
-0.101979
-0.0838096
-0.072286
-0.0670991
-0.0661246
-0.0668558
-0.0677603
-0.0684025
-0.0687163
0.0062535
0.00502389
0.00235627
-0.00254884
-0.0106294
-0.0226
-0.0388364
-0.0591479
-0.0827549
-0.108451
-0.134878
-0.160801
-0.185304
-0.207842
-0.228203
-0.246391
-0.262518
-0.276722
-0.289122
-0.299803
-0.308818
-0.316205
-0.321986
-0.326166
-0.328746
-0.329793
-0.329301
-0.327291
-0.323785
-0.318804
-0.312366
-0.30448
-0.295139
-0.284301
-0.271864
-0.257631
-0.241289
-0.222428
-0.200663
-0.175949
-0.149076
-0.122116
-0.098296
-0.0808457
-0.0712136
-0.0680922
-0.068409
-0.0695027
-0.0703456
-0.0708022
0.00136158
-6.18166e-05
-0.00332725
-0.0093888
-0.0192459
-0.0335323
-0.0523903
-0.0752915
-0.101118
-0.128424
-0.155767
-0.181989
-0.20635
-0.228518
-0.248453
-0.266272
-0.282136
-0.296188
-0.308527
-0.319213
-0.328275
-0.335733
-0.341598
-0.345869
-0.348542
-0.349675
-0.349266
-0.347326
-0.343871
-0.338917
-0.332478
-0.32457
-0.315201
-0.304374
-0.292056
-0.278156
-0.262469
-0.244635
-0.224157
-0.200549
-0.173776
-0.144934
-0.116792
-0.0933636
-0.0780415
-0.0713425
-0.0704841
-0.0716645
-0.0727555
-0.0734112
-0.0055684
-0.00720669
-0.0110931
-0.0183031
-0.029845
-0.0462217
-0.0673106
-0.0922567
-0.119661
-0.147924
-0.175618
-0.201725
-0.225709
-0.247423
-0.266955
-0.284481
-0.300171
-0.314144
-0.326472
-0.337185
-0.346296
-0.353813
-0.359744
-0.364086
-0.366832
-0.368036
-0.367702
-0.365832
-0.362439
-0.357532
-0.35112
-0.343213
-0.333822
-0.322961
-0.310641
-0.296847
-0.281496
-0.26437
-0.245048
-0.222918
-0.197397
-0.16856
-0.13807
-0.109696
-0.0882167
-0.0765518
-0.0733999
-0.074348
-0.0757462
-0.0766497
-0.0143887
-0.0162488
-0.0207361
-0.0290131
-0.0420499
-0.0601882
-0.0830383
-0.109457
-0.137836
-0.166514
-0.194142
-0.219878
-0.243378
-0.264639
-0.283827
-0.301134
-0.316709
-0.330641
-0.342968
-0.353701
-0.362842
-0.370396
-0.376368
-0.380758
-0.383559
-0.384818
-0.384547
-0.382745
-0.379419
-0.374576
-0.368222
-0.360358
-0.350991
-0.340132
-0.327801
-0.314021
-0.298797
-0.28205
-0.263534
-0.242731
-0.21888
-0.191333
-0.160482
-0.12898
-0.101898
-0.0843645
-0.0776161
-0.077714
-0.0794413
-0.0806298
-0.0247715
-0.0268447
-0.0318752
-0.0410818
-0.0553589
-0.0748774
-0.0990021
-0.126358
-0.155202
-0.18388
-0.211168
-0.236401
-0.259393
-0.280242
-0.299146
-0.316286
-0.331778
-0.345674
-0.357991
-0.368726
-0.377874
-0.38544
-0.391433
-0.395853
-0.398693
-0.399993
-0.399777
-0.398034
-0.394773
-0.390001
-0.38372
-0.37593
-0.366633
-0.355831
-0.343539
-0.329786
-0.314614
-0.298043
-0.279993
-0.260152
-0.237855
-0.212156
-0.182447
-0.149865
-0.118638
-0.0951576
-0.0836388
-0.0819931
-0.0839464
-0.0854642
-0.0362553
-0.0385178
-0.0440072
-0.0539726
-0.0692071
-0.0897187
-0.114665
-0.1425
-0.171415
-0.199809
-0.226601
-0.251285
-0.273793
-0.29428
-0.312949
-0.329951
-0.345367
-0.35922
-0.37151
-0.382226
-0.391363
-0.398925
-0.404924
-0.409361
-0.412229
-0.41356
-0.413388
-0.411696
-0.408494
-0.403789
-0.397585
-0.389882
-0.38068
-0.369977
-0.357781
-0.344112
-0.329013
-0.312547
-0.29475
-0.275514
-0.25441
-0.230547
-0.202792
-0.170892
-0.137468
-0.108874
-0.091896
-0.0874784
-0.0893521
-0.0912725
-0.0483041
-0.0507196
-0.0565685
-0.0671116
-0.0830237
-0.104172
-0.129553
-0.157508
-0.186215
-0.214156
-0.240385
-0.264526
-0.286594
-0.306768
-0.325235
-0.342113
-0.35745
-0.371248
-0.383495
-0.394178
-0.403292
-0.410841
-0.416836
-0.421283
-0.424172
-0.425526
-0.425389
-0.423739
-0.420589
-0.415944
-0.409811
-0.402193
-0.393093
-0.38251
-0.370446
-0.356913
-0.341943
-0.325602
-0.307978
-0.28911
-0.268822
-0.246476
-0.220867
-0.190816
-0.157145
-0.124987
-0.102586
-0.0944499
-0.095751
-0.098167
-0.0603678
-0.0628893
-0.0689939
-0.0799401
-0.0962762
-0.117758
-0.143267
-0.171084
-0.19941
-0.226817
-0.252479
-0.276116
-0.297793
-0.317695
-0.335983
-0.352743
-0.367996
-0.38173
-0.393925
-0.404568
-0.413653
-0.421185
-0.427173
-0.431625
-0.434529
-0.435899
-0.435791
-0.434176
-0.431067
-0.426473
-0.420401
-0.412861
-0.403857
-0.393394
-0.381475
-0.368109
-0.353316
-0.337149
-0.319705
-0.301101
-0.281353
-0.260133
-0.236463
-0.20879
-0.176434
-0.142596
-0.11556
-0.103099
-0.103251
-0.106205
-0.0719318
-0.0745083
-0.0807633
-0.0919557
-0.1085
-0.130073
-0.155486
-0.183
-0.210856
-0.237715
-0.262843
-0.286032
-0.307371
-0.327035
-0.345161
-0.361807
-0.376975
-0.390641
-0.402782
-0.413384
-0.422441
-0.429956
-0.435936
-0.440391
-0.443308
-0.444686
-0.444602
-0.443014
-0.439938
-0.435383
-0.429362
-0.421886
-0.412965
-0.40261
-0.39083
-0.377636
-0.363044
-0.347095
-0.329873
-0.311516
-0.292159
-0.271739
-0.249633
-0.224366
-0.194314
-0.160609
-0.130304
-0.11344
-0.11191
-0.115324
-0.082577
-0.0851146
-0.0914364
-0.102736
-0.119313
-0.140796
-0.165963
-0.193082
-0.220444
-0.246784
-0.27144
-0.294243
-0.315293
-0.334753
-0.352733
-0.369273
-0.384358
-0.39796
-0.410052
-0.420618
-0.429652
-0.437153
-0.443127
-0.447584
-0.450511
-0.451895
-0.451829
-0.450261
-0.447207
-0.442681
-0.436697
-0.429268
-0.420412
-0.410147
-0.398488
-0.385453
-0.371061
-0.355347
-0.338381
-0.320296
-0.301276
-0.281443
-0.260527
-0.237391
-0.210068
-0.17794
-0.146008
-0.125227
-0.121628
-0.125286
-0.091986
-0.0943309
-0.100653
-0.111953
-0.128424
-0.149685
-0.174512
-0.2012
-0.22809
-0.253972
-0.278229
-0.300713
-0.321524
-0.34081
-0.358663
-0.375107
-0.39012
-0.403668
-0.41572
-0.42626
-0.43528
-0.442775
-0.448749
-0.453208
-0.456144
-0.457536
-0.457479
-0.455924
-0.452883
-0.448373
-0.442408
-0.435008
-0.426195
-0.415994
-0.404429
-0.391527
-0.377314
-0.361827
-0.345128
-0.327338
-0.308651
-0.289291
-0.26927
-0.24788
-0.223272
-0.193654
-0.161701
-0.137934
-0.132064
-0.135667
-0.0999104
-0.101927
-0.108141
-0.119365
-0.135627
-0.15657
-0.181005
-0.207266
-0.233733
-0.259234
-0.283171
-0.305403
-0.326024
-0.345169
-0.362917
-0.379282
-0.394238
-0.407746
-0.419775
-0.430304
-0.439322
-0.446822
-0.452802
-0.457268
-0.460213
-0.461616
-0.461565
-0.460018
-0.456979
-0.452469
-0.446506
-0.439111
-0.430314
-0.420146
-0.408641
-0.395834
-0.381764
-0.366472
-0.350024
-0.332529
-0.314178
-0.29524
-0.275913
-0.255892
-0.233719
-0.207046
-0.176402
-0.15081
-0.142672
-0.145927
-0.106184
-0.107784
-0.113747
-0.124818
-0.140804
-0.16137
-0.185387
-0.211239
-0.237341
-0.262538
-0.286234
-0.30828
-0.328757
-0.347792
-0.36546
-0.381768
-0.396688
-0.410177
-0.422202
-0.432738
-0.44177
-0.449289
-0.455288
-0.459769
-0.462726
-0.46414
-0.464092
-0.462549
-0.459503
-0.45498
-0.448999
-0.441585
-0.432773
-0.422601
-0.411114
-0.398357
-0.384379
-0.369234
-0.352993
-0.335767
-0.317739
-0.29919
-0.280432
-0.261471
-0.241336
-0.217642
-0.189239
-0.163008
-0.152817
-0.155496
-0.110739
-0.111865
-0.117429
-0.128254
-0.143902
-0.164038
-0.187613
-0.213072
-0.238867
-0.263843
-0.287384
-0.309318
-0.32971
-0.348677
-0.366293
-0.382569
-0.397475
-0.410969
-0.423012
-0.433575
-0.44264
-0.450191
-0.456218
-0.460716
-0.46368
-0.4651
-0.465048
-0.463509
-0.460447
-0.455895
-0.449878
-0.442421
-0.433563
-0.42335
-0.411837
-0.39908
-0.385138
-0.370077
-0.35398
-0.336964
-0.319216
-0.30102
-0.282743
-0.264608
-0.246106
-0.225161
-0.199524
-0.173712
-0.161869
-0.163832
-0.113603
-0.114224
-0.119253
-0.12972
-0.144964
-0.164615
-0.187709
-0.212771
-0.238287
-0.263096
-0.286549
-0.308435
-0.328795
-0.347739
-0.365341
-0.381619
-0.396546
-0.410077
-0.422172
-0.432796
-0.441926
-0.449541
-0.455627
-0.460174
-0.463176
-0.464617
-0.464541
-0.462972
-0.45986
-0.455243
-0.449147
-0.441607
-0.432667
-0.422375
-0.41079
-0.397978
-0.384008
-0.368961
-0.352933
-0.336052
-0.318513
-0.300608
-0.282734
-0.26525
-0.248022
-0.229455
-0.206765
-0.182209
-0.169254
-0.170454
-0.114885
-0.115002
-0.119375
-0.129343
-0.144099
-0.163195
-0.185752
-0.210387
-0.235629
-0.260305
-0.28372
-0.305614
-0.325994
-0.344958
-0.362584
-0.378896
-0.393873
-0.407472
-0.419648
-0.430363
-0.439585
-0.447289
-0.453455
-0.458069
-0.461122
-0.462602
-0.462528
-0.460939
-0.457776
-0.453083
-0.446891
-0.439232
-0.430154
-0.419714
-0.407982
-0.395035
-0.380961
-0.365849
-0.349804
-0.332967
-0.315546
-0.297846
-0.280288
-0.263313
-0.247063
-0.230456
-0.210637
-0.18793
-0.174476
-0.174945
-0.114761
-0.114411
-0.118031
-0.127327
-0.141471
-0.159917
-0.181852
-0.205995
-0.230932
-0.25548
-0.278889
-0.300837
-0.321287
-0.340318
-0.358008
-0.374391
-0.389454
-0.403156
-0.41545
-0.42629
-0.435638
-0.443461
-0.449735
-0.454439
-0.45756
-0.459086
-0.459019
-0.457409
-0.454189
-0.449402
-0.443088
-0.435281
-0.426031
-0.415401
-0.403468
-0.390315
-0.376038
-0.360743
-0.344559
-0.327651
-0.310241
-0.292642
-0.275298
-0.258704
-0.243193
-0.228137
-0.210951
-0.190442
-0.17711
-0.176939
-0.113459
-0.112714
-0.115519
-0.123948
-0.137312
-0.154972
-0.17616
-0.1997
-0.224253
-0.248634
-0.272039
-0.294071
-0.314635
-0.333781
-0.351583
-0.368081
-0.383272
-0.397119
-0.409572
-0.420579
-0.430093
-0.438074
-0.444489
-0.449311
-0.452521
-0.454105
-0.454052
-0.452421
-0.449137
-0.444243
-0.437782
-0.429793
-0.420326
-0.409451
-0.397249
-0.383814
-0.369249
-0.353676
-0.337235
-0.320112
-0.302558
-0.284924
-0.267675
-0.251333
-0.236362
-0.222489
-0.207607
-0.189436
-0.176785
-0.176111
-0.111244
-0.110202
-0.112177
-0.119543
-0.131909
-0.148604
-0.168872
-0.191644
-0.215674
-0.239796
-0.263156
-0.285276
-0.305988
-0.325298
-0.343265
-0.359931
-0.375301
-0.389342
-0.402002
-0.413222
-0.422949
-0.43113
-0.437726
-0.4427
-0.446027
-0.447688
-0.447666
-0.446013
-0.442665
-0.437652
-0.431022
-0.422817
-0.41309
-0.401913
-0.389373
-0.37557
-0.360619
-0.344651
-0.327827
-0.310354
-0.292513
-0.274684
-0.257374
-0.24114
-0.226529
-0.213515
-0.200568
-0.184708
-0.173181
-0.172165
-0.108394
-0.10717
-0.108351
-0.114486
-0.125606
-0.141102
-0.160228
-0.18201
-0.205312
-0.229018
-0.252238
-0.274414
-0.29529
-0.314809
-0.333001
-0.349899
-0.36551
-0.379804
-0.392728
-0.404219
-0.41421
-0.422643
-0.429465
-0.434632
-0.438111
-0.439875
-0.439907
-0.438238
-0.434828
-0.429689
-0.422871
-0.414419
-0.404388
-0.392852
-0.379902
-0.365644
-0.3502
-0.333716
-0.31637
-0.298395
-0.280105
-0.261921
-0.244395
-0.228119
-0.213689
-0.201235
-0.189841
-0.176136
-0.16601
-0.164819
-0.105178
-0.103884
-0.104361
-0.109162
-0.118782
-0.132798
-0.150503
-0.171014
-0.193318
-0.216378
-0.239299
-0.261449
-0.282476
-0.302243
-0.320724
-0.337931
-0.353861
-0.368484
-0.381745
-0.393572
-0.403894
-0.412637
-0.41974
-0.425149
-0.42882
-0.430722
-0.43083
-0.429164
-0.425698
-0.42043
-0.413408
-0.40468
-0.394304
-0.382352
-0.368919
-0.354114
-0.338069
-0.320941
-0.302928
-0.284291
-0.265383
-0.246672
-0.22876
-0.212291
-0.197901
-0.185722
-0.175486
-0.163681
-0.155026
-0.1538
-0.10183
-0.100563
-0.10047
-0.103925
-0.111831
-0.124058
-0.140012
-0.15891
-0.179877
-0.201986
-0.224373
-0.246354
-0.26748
-0.287513
-0.306351
-0.323956
-0.340304
-0.355352
-0.36904
-0.38129
-0.392019
-0.401144
-0.408593
-0.414301
-0.418215
-0.420295
-0.420512
-0.418871
-0.415362
-0.409966
-0.402729
-0.393702
-0.382941
-0.370519
-0.356529
-0.341087
-0.324329
-0.306427
-0.2876
-0.26814
-0.248444
-0.229031
-0.210561
-0.193732
-0.179233
-0.167125
-0.157633
-0.147383
-0.14004
-0.138852
-0.0985364
-0.0973651
-0.0968639
-0.0990662
-0.105132
-0.11527
-0.129097
-0.145983
-0.165207
-0.185984
-0.207524
-0.229122
-0.250241
-0.270529
-0.28978
-0.307884
-0.324768
-0.340364
-0.354596
-0.367376
-0.378609
-0.388205
-0.396078
-0.402153
-0.406369
-0.408678
-0.409044
-0.407458
-0.403924
-0.398407
-0.39095
-0.381604
-0.370423
-0.357478
-0.342863
-0.326694
-0.309115
-0.290312
-0.270527
-0.250089
-0.22944
-0.20916
-0.189967
-0.172613
-0.157825
-0.145649
-0.13648
-0.127365
-0.120953
-0.119745
-0.0954274
-0.0943923
-0.0936522
-0.0947879
-0.0990056
-0.106812
-0.118121
-0.132541
-0.149555
-0.168554
-0.188858
-0.209783
-0.230724
-0.25121
-0.270914
-0.289617
-0.307172
-0.323463
-0.338383
-0.351828
-0.363689
-0.373863
-0.382256
-0.388782
-0.393371
-0.395967
-0.39653
-0.395038
-0.391504
-0.38588
-0.378204
-0.368525
-0.356895
-0.343381
-0.328077
-0.311099
-0.2926
-0.272779
-0.251907
-0.23035
-0.208602
-0.187303
-0.167236
-0.149198
-0.133944
-0.121529
-0.112292
-0.103812
-0.0977528
-0.0962421
-0.0925806
-0.0917
-0.0908744
-0.0911893
-0.0936778
-0.0990101
-0.107436
-0.118907
-0.133191
-0.149908
-0.168527
-0.188422
-0.208946
-0.229521
-0.249677
-0.269066
-0.287432
-0.304583
-0.320364
-0.334637
-0.347275
-0.358161
-0.36719
-0.374267
-0.379315
-0.382271
-0.383089
-0.381739
-0.378234
-0.372526
-0.36464
-0.354621
-0.342521
-0.328403
-0.312358
-0.294505
-0.275005
-0.254074
-0.232009
-0.209219
-0.186253
-0.163812
-0.142736
-0.123864
-0.107964
-0.0950535
-0.0854252
-0.0769515
-0.0704908
-0.0680027
-0.0900284
-0.0893107
-0.0885224
-0.088275
-0.0892499
-0.09209
-0.0973408
-0.105388
-0.1164
-0.130295
-0.146741
-0.1652
-0.185014
-0.205508
-0.226071
-0.246199
-0.265502
-0.283683
-0.300511
-0.315798
-0.329388
-0.341144
-0.350946
-0.358694
-0.364302
-0.367703
-0.368846
-0.367698
-0.364261
-0.358501
-0.350423
-0.340071
-0.327494
-0.312754
-0.295938
-0.27717
-0.256619
-0.23452
-0.211199
-0.187106
-0.162843
-0.139169
-0.116971
-0.0971138
-0.0803603
-0.0666448
-0.056309
-0.047052
-0.0393693
-0.0346265
-0.0877622
-0.0872201
-0.0865595
-0.0859737
-0.0856834
-0.0861186
-0.0880163
-0.0922354
-0.0994561
-0.109995
-0.123774
-0.140377
-0.159155
-0.179355
-0.200225
-0.2211
-0.241433
-0.260793
-0.278849
-0.295344
-0.310073
-0.322872
-0.333605
-0.342159
-0.348444
-0.352389
-0.35394
-0.353061
-0.349747
-0.343978
-0.335742
-0.32508
-0.312043
-0.296689
-0.279108
-0.259426
-0.237822
-0.214551
-0.189967
-0.164559
-0.138972
-0.114009
-0.0905846
-0.06957
-0.0517007
-0.0368323
-0.0254133
-0.0144433
-0.00502687
0.00394544
-0.0857251
-0.0853888
-0.0849257
-0.0841531
-0.0827987
-0.0809659
-0.07946
-0.0795838
-0.0825985
-0.0893169
-0.0999823
-0.114336
-0.13176
-0.151431
-0.172471
-0.194049
-0.215451
-0.236096
-0.255531
-0.273406
-0.289454
-0.303471
-0.315295
-0.3248
-0.331889
-0.336488
-0.338541
-0.338013
-0.33489
-0.329171
-0.320832
-0.309911
-0.296459
-0.28054
-0.262244
-0.241705
-0.219113
-0.194739
-0.168962
-0.142298
-0.115416
-0.0891353
-0.0643648
-0.0419493
-0.0225779
-0.00606414
0.00702668
0.0207749
0.0316942
0.0475241
-0.0837962
-0.0837207
-0.0835132
-0.0826095
-0.0802772
-0.0762914
-0.0714449
-0.067401
-0.0659956
-0.0685925
-0.0758206
-0.0876199
-0.103421
-0.122347
-0.143399
-0.165593
-0.188046
-0.21002
-0.230924
-0.250304
-0.267816
-0.283199
-0.296259
-0.306853
-0.314871
-0.320236
-0.322893
-0.322807
-0.319961
-0.314368
-0.306005
-0.294907
-0.281129
-0.264742
-0.245844
-0.224575
-0.201137
-0.175815
-0.149001
-0.121215
-0.0931226
-0.0655107
-0.039233
-0.0150548
0.00642411
0.0254472
0.0414186
0.0594007
0.0717357
0.0981939
-0.0817811
-0.082033
-0.0821141
-0.0810243
-0.0776583
-0.0715715
-0.0635382
-0.055485
-0.0497347
-0.0481803
-0.0518629
-0.0609579
-0.0749709
-0.0929898
-0.11391
-0.136605
-0.160036
-0.18331
-0.2057
-0.226638
-0.24569
-0.262535
-0.276937
-0.288724
-0.297777
-0.30401
-0.307369
-0.307822
-0.305352
-0.299976
-0.291695
-0.280537
-0.266567
-0.249866
-0.230541
-0.208744
-0.184686
-0.158656
-0.131039
-0.102331
-0.0731442
-0.044179
-0.0161681
0.0102712
0.0347048
0.057563
0.0784545
0.103225
0.120224
0.163268
-0.0794661
-0.0800736
-0.0804405
-0.0790002
-0.0744012
-0.0661914
-0.0552131
-0.0435542
-0.0338744
-0.0284905
-0.0288222
-0.0352917
-0.0475072
-0.0645467
-0.0852258
-0.108299
-0.132589
-0.157066
-0.180874
-0.203331
-0.223916
-0.242239
-0.258018
-0.271051
-0.2812
-0.288373
-0.292514
-0.293593
-0.291601
-0.286551
-0.278473
-0.267402
-0.253414
-0.236603
-0.217089
-0.19503
-0.170641
-0.144199
-0.116057
-0.0866462
-0.0564723
-0.0260817
0.0039914
0.0333602
0.0618438
0.0901921
0.118411
0.153592
0.18337
0.248056
-0.0769552
-0.0778039
-0.0783016
-0.0762561
-0.0702066
-0.059779
-0.046112
-0.0314566
-0.018581
-0.0100464
-0.00755812
-0.0117532
-0.0223534
-0.0384587
-0.0588429
-0.0821767
-0.107177
-0.132697
-0.157771
-0.181618
-0.203632
-0.223359
-0.240467
-0.254723
-0.265968
-0.274102
-0.279067
-0.280837
-0.279411
-0.274808
-0.267065
-0.256232
-0.242407
-0.225705
-0.206256
-0.184215
-0.159787
-0.133217
-0.1048
-0.0748644
-0.0437537
-0.0117843
0.0208154
0.054039
0.0881309
0.124283
0.162808
0.212463
0.259965
0.338533
-0.0755338
-0.0762317
-0.0763596
-0.0731351
-0.065255
-0.0526031
-0.0365244
-0.0195288
-0.00439351
0.00638015
0.0108942
0.0083675
-0.000999087
-0.0163441
-0.0364436
-0.0599307
-0.0854566
-0.111795
-0.137896
-0.1629
-0.186132
-0.20708
-0.225368
-0.240732
-0.252993
-0.262041
-0.267814
-0.27029
-0.269476
-0.265406
-0.258134
-0.247703
-0.2342
-0.21777
-0.198564
-0.176737
-0.152467
-0.125953
-0.0974079
-0.067032
-0.0349661
-0.00121718
0.0344461
0.0726904
0.114683
0.162754
0.217971
0.289096
0.349462
0.424433
-0.0797073
-0.0790077
-0.0773987
-0.0717888
-0.0612417
-0.0460032
-0.0276779
-0.00886757
0.0076478
0.0196565
0.0253936
0.0238583
0.015238
0.000371722
-0.019541
-0.0431316
-0.0690235
-0.0959464
-0.122798
-0.148667
-0.172826
-0.194719
-0.213937
-0.23019
-0.243281
-0.253091
-0.259555
-0.262652
-0.262394
-0.258823
-0.251999
-0.242014
-0.228944
-0.212872
-0.193954
-0.172368
-0.148278
-0.121837
-0.0931763
-0.0623592
-0.0293008
0.00636385
0.0454836
0.0897727
0.14215
0.207838
0.291632
0.403552
0.495815
0.603396
-0.10314
-0.0953191
-0.086873
-0.0760844
-0.0617209
-0.0433894
-0.0227346
-0.00233488
0.0153618
0.0281446
0.0343239
0.0332128
0.0250026
0.0104835
-0.00919056
-0.0326852
-0.0586395
-0.085779
-0.112982
-0.139309
-0.164001
-0.186472
-0.206285
-0.223128
-0.23679
-0.247139
-0.254105
-0.257664
-0.25783
-0.254645
-0.248175
-0.238504
-0.225731
-0.209965
-0.191333
-0.169973
-0.146034
-0.119641
-0.0908573
-0.0596205
-0.0256286
0.0118625
0.0543676
0.104807
0.16831
0.25437
0.375662
0.555709
0.767675
1.10783
-0.189974
-0.112219
-0.0806311
-0.0714022
-0.0581242
-0.0387504
-0.0170528
0.00395421
0.0217614
0.0341933
0.039845
0.0382332
0.0296301
0.0148553
-0.00494456
-0.0284716
-0.0544106
-0.0815263
-0.108724
-0.135078
-0.159834
-0.182406
-0.20235
-0.219348
-0.233181
-0.243712
-0.250865
-0.254615
-0.254972
-0.251976
-0.245693
-0.236207
-0.223617
-0.208033
-0.189575
-0.168375
-0.144567
-0.118247
-0.0894205
-0.0579288
-0.0233053
0.0154742
0.060402
0.11522
0.186488
0.286549
0.435296
0.680359
1.07936
1.82853
)
;

boundaryField
{
    movingWall
    {
        type            zeroGradient;
    }
    fixedWalls
    {
        type            zeroGradient;
    }
    frontAndBack
    {
        type            empty;
    }
}


// ************************************************************************* //
