/*--------------------------------*- C++ -*----------------------------------*\
  =========                 |
  \\      /  F ield         | OpenFOAM: The Open Source CFD Toolbox
   \\    /   O peration     | Website:  https://openfoam.org
    \\  /    A nd           | Version:  7
     \\/     M anipulation  |
\*---------------------------------------------------------------------------*/
FoamFile
{
    version     2.0;
    format      ascii;
    class       surfaceScalarField;
    location    "1300";
    object      phi;
}
// * * * * * * * * * * * * * * * * * * * * * * * * * * * * * * * * * * * * * //

dimensions      [0 3 -1 0 0 0 0];

internalField   nonuniform List<scalar> 
4900
(
1.70171e-06
-1.70201e-06
6.22397e-06
-4.52223e-06
1.17165e-05
-5.49263e-06
1.65024e-05
-4.78615e-06
1.97498e-05
-3.24746e-06
2.13887e-05
-1.63907e-06
2.17671e-05
-3.78458e-07
2.12614e-05
5.05596e-07
2.00149e-05
1.24647e-06
1.78635e-05
2.15137e-06
1.44139e-05
3.44949e-06
9.17934e-06
5.23451e-06
1.66863e-06
7.51066e-06
-8.57023e-06
1.02388e-05
-2.18867e-05
1.33164e-05
-3.84435e-05
1.65568e-05
-5.81448e-05
1.97013e-05
-8.0555e-05
2.24102e-05
-0.000104836
2.42804e-05
-0.000129729
2.48937e-05
-0.000153609
2.38793e-05
-0.000174587
2.09783e-05
-0.000190682
1.60955e-05
-0.00020002
9.33781e-06
-0.00020108
1.05969e-06
-0.000192921
-8.15915e-06
-0.000175299
-1.7622e-05
-0.000148735
-2.65636e-05
-0.000114525
-3.42107e-05
-7.4693e-05
-3.98316e-05
-3.18926e-05
-4.28005e-05
1.07613e-05
-4.26539e-05
5.00121e-05
-3.92508e-05
8.30085e-05
-3.29964e-05
0.000107575
-2.45663e-05
0.000122447
-1.48724e-05
0.000127512
-5.06467e-06
0.000123851
3.66086e-06
0.000113462
1.03885e-05
9.87381e-05
1.47243e-05
8.20211e-05
1.6717e-05
6.52488e-05
1.67722e-05
4.97668e-05
1.5482e-05
3.63089e-05
1.34579e-05
2.51023e-05
1.12065e-05
1.60393e-05
9.06305e-06
8.89295e-06
7.14633e-06
3.59404e-06
5.2989e-06
5.05095e-07
3.08893e-06
5.05093e-07
4.47721e-06
-6.1791e-06
1.38513e-05
-1.38965e-05
2.43125e-05
-1.59542e-05
3.28999e-05
-1.33739e-05
3.80017e-05
-8.34961e-06
3.92276e-05
-2.86513e-06
3.68591e-05
1.98982e-06
3.1203e-05
6.16147e-06
2.21512e-05
1.02981e-05
9.07571e-06
1.52267e-05
-9.02076e-06
2.15458e-05
-3.3239e-05
2.94526e-05
-6.44785e-05
3.87501e-05
-0.000103179
4.89392e-05
-0.000149111
5.92479e-05
-0.000201213
6.86591e-05
-0.000257539
7.60276e-05
-0.000315379
8.02501e-05
-0.000371535
8.04365e-05
-0.000422672
7.60305e-05
-0.000465652
6.6859e-05
-0.000497796
5.31219e-05
-0.000517049
3.53487e-05
-0.000522071
1.43597e-05
-0.000512317
-8.69364e-06
-0.000487881
-3.25953e-05
-0.000449398
-5.61056e-05
-0.000398071
-7.78906e-05
-0.000335731
-9.65507e-05
-0.000264852
-0.00011071
-0.000188525
-0.000119128
-0.000110322
-0.000120856
-3.41278e-05
-0.000115445
3.59843e-05
-0.000103109
9.63238e-05
-8.49059e-05
0.000144076
-6.26247e-05
0.000177318
-3.83069e-05
0.000195261
-1.42818e-05
0.000198498
7.15128e-06
0.000189128
2.40943e-05
0.0001703
3.55455e-05
0.000145604
4.14682e-05
0.000118449
4.26361e-05
9.16028e-05
4.03045e-05
6.69304e-05
3.58789e-05
4.54192e-05
3.05742e-05
2.74593e-05
2.51062e-05
1.3335e-05
1.94232e-05
3.75539e-06
1.26685e-05
4.26048e-06
5.98756e-06
-1.21667e-05
1.7338e-05
-2.52471e-05
2.8802e-05
-2.74184e-05
3.68219e-05
-2.13941e-05
3.95363e-05
-1.10643e-05
3.63565e-05
3.14445e-07
2.72195e-05
1.11267e-05
1.19178e-05
2.14629e-05
-1.03134e-05
3.25291e-05
-4.07511e-05
4.56643e-05
-8.0755e-05
6.15496e-05
-0.000131248
7.99457e-05
-0.000192296
9.97977e-05
-0.000262794
0.000119437
-0.000340395
0.00013685
-0.000421744
0.000150008
-0.000502924
0.000157207
-0.000579981
0.000157307
-0.000649369
0.000149825
-0.000708228
0.000134889
-0.000754473
0.000113103
-0.000786745
8.53943e-05
-0.000804283
5.28866e-05
-0.000806738
1.68143e-05
-0.000793973
-2.14583e-05
-0.000766001
-6.05672e-05
-0.000723134
-9.89728e-05
-0.00066611
-0.000134915
-0.000596168
-0.000166493
-0.000515148
-0.00019173
-0.000425572
-0.000208704
-0.000330642
-0.000215787
-0.000234143
-0.000211944
-0.000140209
-0.000197043
-5.3068e-05
-0.000172047
2.33149e-05
-0.000139008
8.59672e-05
-0.000100959
0.000133097
-6.14121e-05
0.000163739
-2.34907e-05
0.000178036
9.79747e-06
0.000177526
3.60558e-05
0.000165012
5.39826e-05
0.000144041
6.36063e-05
0.000118297
6.60487e-05
9.10394e-05
6.31366e-05
6.47422e-05
5.68714e-05
4.10643e-05
4.87841e-05
2.12073e-05
3.92802e-05
6.60701e-06
2.72688e-05
1.08675e-05
6.50861e-06
-1.86752e-05
1.75973e-05
-3.63358e-05
2.6952e-05
-3.67733e-05
3.07583e-05
-2.52007e-05
2.72105e-05
-7.51667e-06
1.56153e-05
1.19094e-05
-4.5627e-06
3.13045e-05
-3.43375e-05
5.12376e-05
-7.52322e-05
7.34236e-05
-0.000128723
9.91554e-05
-0.000195541
0.000128367
-0.000275106
0.00015951
-0.000365291
0.000189983
-0.000462608
0.000216754
-0.000562745
0.000236986
-0.000661253
0.000248516
-0.000754155
0.00025011
-0.000838313
0.000241465
-0.000911518
0.00022303
-0.000972367
0.000195738
-0.00102003
0.000160764
-0.00105401
0.000119374
-0.00107397
7.28444e-05
-0.00107958
2.24278e-05
-0.00107045
-3.05881e-05
-0.00104627
-8.47457e-05
-0.0010069
-0.000138342
-0.000952411
-0.000189405
-0.000883204
-0.0002357
-0.00080021
-0.000274725
-0.000705066
-0.000303847
-0.000600269
-0.000320584
-0.00048923
-0.000322983
-0.00037622
-0.000310053
-0.000266074
-0.000282192
-0.000163649
-0.000241432
-7.32619e-05
-0.000191347
1.81786e-06
-0.000136492
6.00158e-05
-8.16887e-05
0.000101028
-3.12148e-05
0.00012511
1.19741e-05
0.000133552
4.55407e-05
0.00012886
6.82983e-05
0.00011433
8.05784e-05
9.35454e-05
8.39211e-05
6.98683e-05
8.05485e-05
4.61149e-05
7.25374e-05
2.46356e-05
6.07595e-05
7.92808e-06
4.39763e-05
1.87956e-05
6.2054e-06
-2.48806e-05
1.48962e-05
-4.50266e-05
1.92072e-05
-4.10844e-05
1.54776e-05
-2.14713e-05
2.16059e-06
5.8001e-06
-2.16277e-05
3.56975e-05
-5.70641e-05
6.67408e-05
-0.000105875
0.000100048
-0.000169684
0.000137233
-0.000249054
0.000178525
-0.000342801
0.000222114
-0.000447908
0.000264617
-0.000559992
0.000302067
-0.000674112
0.000330874
-0.000785591
0.000348465
-0.000890609
0.000353534
-0.000986436
0.000345937
-0.00107136
0.000326386
-0.00114442
0.00029609
-0.00120513
0.000256446
-0.00125323
0.000208872
-0.0012886
0.000154742
-0.00131109
9.53359e-05
-0.00132053
3.18616e-05
-0.00131663
-3.44853e-05
-0.00129906
-0.000102318
-0.00126733
-0.000170068
-0.00122087
-0.000235871
-0.00115912
-0.000297444
-0.00108183
-0.00035202
-0.000989229
-0.000396445
-0.000882422
-0.000427391
-0.000763692
-0.000441713
-0.000636743
-0.000437002
-0.000506648
-0.000412288
-0.000379432
-0.000368648
-0.000261293
-0.000309486
-0.00015753
-0.000240255
-7.16718e-05
-0.000167547
-5.15727e-06
-9.77293e-05
4.25561e-05
-3.57393e-05
7.27135e-05
1.53833e-05
8.69182e-05
5.40935e-05
8.76982e-05
7.97984e-05
7.82623e-05
9.3357e-05
6.21226e-05
9.66882e-05
4.27398e-05
9.19202e-05
2.3408e-05
8.00913e-05
7.60313e-06
5.97812e-05
2.63987e-05
4.89878e-06
-2.97794e-05
8.88193e-06
-4.90099e-05
5.29243e-06
-3.7495e-05
-8.91967e-06
-7.25934e-06
-3.50988e-05
3.1979e-05
-7.44075e-05
7.50062e-05
-0.000128564
0.000120897
-0.000199318
0.000170801
-0.000287226
0.00022514
-0.000390765
0.000282065
-0.00050629
0.000337639
-0.000628738
0.000387065
-0.000752662
0.00042599
-0.000873153
0.000451365
-0.00098641
0.000461722
-0.00108987
0.000456995
-0.00118205
0.000438115
-0.00126224
0.000406581
-0.00133026
0.000364103
-0.00138621
0.000312395
-0.00143042
0.000253089
-0.00146334
0.000187654
-0.00148534
0.000117343
-0.00149675
4.32732e-05
-0.0014977
-3.35444e-05
-0.00148794
-0.000112076
-0.00146683
-0.000191174
-0.00143332
-0.000269379
-0.00138605
-0.00034472
-0.00132345
-0.000414615
-0.00124407
-0.000475824
-0.001147
-0.000524464
-0.00103245
-0.000556263
-0.000902307
-0.000567146
-0.00076053
-0.000554065
-0.000613237
-0.000515941
-0.000468215
-0.000454508
-0.000333728
-0.000374743
-0.000216839
-0.000284436
-0.000121852
-0.000192716
-4.97244e-05
-0.000107867
1.18036e-06
-3.55215e-05
3.34636e-05
2.18103e-05
4.96768e-05
6.35851e-05
5.27791e-05
9.02547e-05
4.61847e-05
0.000103283
3.35963e-05
0.000104509
1.88747e-05
9.48128e-05
6.11442e-06
7.25415e-05
3.25131e-05
2.2754e-06
-3.20549e-05
-9.11671e-07
-4.58229e-05
-1.50003e-05
-2.34066e-05
-4.21826e-05
1.99229e-05
-8.36418e-05
7.34381e-05
-0.000140812
0.000132176
-0.000215394
0.000195479
-0.000308065
0.000263473
-0.000417291
0.000334366
-0.000539127
0.0004039
-0.000668026
0.000466538
-0.000798056
0.000517095
-0.000923945
0.000551879
-0.00104167
0.000569094
-0.00114859
0.000568635
-0.00124321
0.000551613
-0.00132495
0.00051986
-0.0013939
0.000475531
-0.00145062
0.000420818
-0.00149601
0.000357792
-0.00153122
0.000288297
-0.00155739
0.000213824
-0.00157557
0.000135518
-0.00158659
5.42934e-05
-0.00159095
-2.91783e-05
-0.00158864
-0.000114386
-0.00157911
-0.000200709
-0.0015612
-0.000287286
-0.00153311
-0.000372811
-0.00149237
-0.000455352
-0.0014361
-0.000532096
-0.00136138
-0.000599182
-0.00126586
-0.00065179
-0.00114848
-0.000684527
-0.00101042
-0.000692123
-0.000855859
-0.000670499
-0.000692224
-0.000618143
-0.00052956
-0.000537406
-0.000378877
-0.000435119
-0.000249653
-0.00032194
-0.000147367
-0.000210154
-7.24791e-05
-0.000110409
-2.16852e-05
-2.89836e-05
9.33727e-06
3.25626e-05
2.44464e-05
7.51455e-05
2.74259e-05
0.000100303
2.22331e-05
0.000109701
1.30481e-05
0.000103998
4.21347e-06
8.1376e-05
3.67266e-05
-1.91576e-06
-3.01391e-05
-1.46496e-05
-3.30892e-05
-4.13173e-05
3.26093e-06
-8.32099e-05
6.18154e-05
-0.00014134
0.000131568
-0.000217105
0.000207941
-0.000311288
0.000289662
-0.000422608
0.000374793
-0.000547174
0.000458932
-0.000679182
0.000535908
-0.000812244
0.000599601
-0.000940598
0.000645449
-0.0010598
0.000671079
-0.00116688
0.000676178
-0.00126022
0.000661975
-0.00133928
0.000630672
-0.00140439
0.000584969
-0.00145655
0.000527694
-0.00149726
0.000461527
-0.00152829
0.000388823
-0.00155147
0.000311472
-0.00156847
0.000230828
-0.00158076
0.000147811
-0.00158947
6.29985e-05
-0.00159528
-2.33607e-05
-0.00159846
-0.000111213
-0.00159875
-0.000200414
-0.00159529
-0.000290753
-0.00158636
-0.000381732
-0.00156942
-0.000472299
-0.001541
-0.000560508
-0.00149694
-0.00064325
-0.00143264
-0.000716086
-0.00134395
-0.00077322
-0.00122826
-0.00080781
-0.00108586
-0.000812896
-0.000921061
-0.000782945
-0.000742705
-0.000715763
-0.000563536
-0.000614288
-0.000397932
-0.000487543
-0.000258292
-0.000349793
-0.000151384
-0.000217318
-7.68469e-05
-0.00010352
-2.92162e-05
-1.50681e-05
-2.06387e-06
4.79932e-05
9.98056e-06
8.82586e-05
1.17345e-05
0.000107947
7.79357e-06
0.000107939
2.60159e-06
8.6568e-05
3.93282e-05
-7.74255e-06
-2.23966e-05
-3.18934e-05
-8.93847e-06
-7.2489e-05
4.38564e-05
-0.000129788
0.000119114
-0.000204611
0.000206391
-0.000297691
0.00030102
-0.000408134
0.000400105
-0.000532434
0.000499093
-0.000664817
0.000591316
-0.000798553
0.000669643
-0.000927327
0.000728375
-0.00104612
0.000764245
-0.00115152
0.000776477
-0.00124163
0.000766289
-0.0013159
0.000736243
-0.00137488
0.000689653
-0.00142001
0.000630093
-0.0014533
0.000560988
-0.00147709
0.000485319
-0.00149372
0.000405445
-0.00150528
0.000323032
-0.00151357
0.000239119
-0.00152003
0.000154273
-0.00152571
6.86743e-05
-0.0015313
-1.77685e-05
-0.00153724
-0.000105273
-0.00154361
-0.000194044
-0.00155001
-0.000284354
-0.00155541
-0.000376331
-0.00155797
-0.000469739
-0.00155476
-0.00056372
-0.00154153
-0.000656479
-0.00151278
-0.000744838
-0.00146222
-0.000823772
-0.00138379
-0.000886248
-0.00127303
-0.000923653
-0.00112902
-0.000926953
-0.000956106
-0.000888677
-0.000764809
-0.000805585
-0.000571027
-0.000681325
-0.000392977
-0.000527843
-0.000246188
-0.000364108
-0.000138397
-0.000211311
-6.77018e-05
-8.57635e-05
-2.58934e-05
6.18469e-06
-4.30883e-06
6.6674e-05
3.8723e-06
9.97663e-05
4.28339e-06
0.000107528
1.71508e-06
8.91363e-05
4.10432e-05
-1.49327e-05
-7.46398e-06
-5.16613e-05
2.77901e-05
-0.000106482
9.86774e-05
-0.000178722
0.000191353
-0.00026873
0.0002964
-0.000375966
0.000408257
-0.000497565
0.000521704
-0.000628129
0.000629657
-0.000760805
0.000723991
-0.000888773
0.000797611
-0.00100637
0.000845971
-0.0011096
0.000867476
-0.00119621
0.00086309
-0.00126556
0.000835634
-0.00131837
0.000789055
-0.00135647
0.000727757
-0.00138241
0.000656024
-0.00139899
0.000577573
-0.00140897
0.000495294
-0.0014147
0.000411183
-0.0014181
0.000326426
-0.00142058
0.000241599
-0.00142316
0.000156855
-0.00142654
7.20517e-05
-0.00143123
-1.30796e-05
-0.00143764
-9.88592e-05
-0.00144604
-0.000185647
-0.00145652
-0.000273866
-0.00146894
-0.000363916
-0.00148258
-0.000456098
-0.00149579
-0.000550509
-0.00150554
-0.000646735
-0.00150708
-0.000743298
-0.00149387
-0.000836982
-0.00145791
-0.000922202
-0.00139092
-0.000990642
-0.00128633
-0.00103154
-0.00114188
-0.00103313
-0.000962044
-0.000985425
-0.000759327
-0.000884042
-0.000553296
-0.000733874
-0.000366423
-0.000550981
-0.000217193
-0.000360542
-0.000113337
-0.00018962
-5.01846e-05
-5.69675e-05
-1.63351e-05
3.28244e-05
-1.28753e-06
8.47187e-05
2.74961e-06
0.00010349
1.64868e-06
9.02372e-05
4.26919e-05
-2.29874e-05
1.55234e-05
-7.2444e-05
7.72466e-05
-0.000140705
0.000166939
-0.000226259
0.000276906
-0.00032858
0.000398721
-0.000445545
0.000525222
-0.000572486
0.000648645
-0.00070277
0.000759941
-0.00082924
0.000850461
-0.000945587
0.000913959
-0.00104715
0.000947536
-0.00113119
0.000951512
-0.00119683
0.000928735
-0.0012449
0.000883705
-0.00127755
0.000821702
-0.00129778
0.000747982
-0.00130888
0.000667132
-0.00131398
0.000582672
-0.00131565
0.000496964
-0.0013158
0.000411334
-0.00131571
0.000326338
-0.00131617
0.000242053
-0.0013176
0.000158282
-0.00132026
7.47122e-05
-0.00132437
-8.96975e-06
-0.00133016
-9.30609e-05
-0.00133794
-0.000177869
-0.00134811
-0.0002637
-0.00136111
-0.000350918
-0.00137721
-0.000439998
-0.00139619
-0.000531526
-0.00141691
-0.000626017
-0.00143667
-0.000723539
-0.00145055
-0.000823099
-0.00145103
-0.000921718
-0.00142835
-0.00101333
-0.00137189
-0.00108799
-0.00127282
-0.0011322
-0.00112743
-0.00113082
-0.000940567
-0.0010709
-0.000727419
-0.000947022
-0.000511994
-0.000766406
-0.000321269
-0.000551266
-0.000175844
-0.000335045
-8.16146e-05
-0.000151197
-2.96153e-05
-1.91749e-05
-5.39266e-06
6.0496e-05
2.49361e-06
9.56042e-05
2.18149e-06
9.05493e-05
4.48734e-05
-3.11648e-05
4.66882e-05
-9.24289e-05
0.000138511
-0.000172423
0.000246932
-0.000268675
0.000373158
-0.000379528
0.000509575
-0.0005013
0.000646993
-0.000627997
0.000775342
-0.000752444
0.000884388
-0.000867798
0.000965814
-0.000968672
0.00101483
-0.00105168
0.00103055
-0.00111557
0.0010154
-0.00116105
0.000974215
-0.00119046
0.000913117
-0.00120719
0.000838432
-0.00121499
0.00075578
-0.00121733
0.000669478
-0.00121702
0.000582357
-0.00121598
0.000495923
-0.00121535
0.000410706
-0.00121567
0.000326655
-0.00121707
0.000243453
-0.0012195
0.000160715
-0.00122288
7.80945e-05
-0.00122717
-4.67558e-06
-0.00123244
-8.77908e-05
-0.00123891
-0.000171404
-0.00124698
-0.000255627
-0.00125725
-0.000340646
-0.00127045
-0.000426808
-0.0012873
-0.000514672
-0.00130828
-0.000605032
-0.00133298
-0.000698842
-0.00135921
-0.000796867
-0.00138209
-0.000898842
-0.00139332
-0.0010021
-0.00138137
-0.00109995
-0.00133308
-0.0011805
-0.0012371
-0.0012268
-0.00108854
-0.00121946
-0.000893402
-0.00114216
-0.000670634
-0.000989174
-0.000449612
-0.000772288
-0.00026171
-0.000522947
-0.000127796
-0.000285111
-4.91539e-05
-9.78172e-05
-1.12746e-05
2.26167e-05
2.15909e-06
8.21704e-05
2.88118e-06
8.98272e-05
4.77546e-05
-3.85898e-05
8.5278e-05
-0.000109887
0.000209808
-0.000199149
0.000336193
-0.000302832
0.000476842
-0.000418081
0.000624824
-0.00053994
0.000768852
-0.000661666
0.000897068
-0.000776143
0.000998865
-0.000877289
0.00106696
-0.00096094
0.00109848
-0.00102521
0.00109481
-0.00107046
0.00106065
-0.00109899
0.00100275
-0.00111442
0.000928549
-0.00112087
0.000844884
-0.0011222
0.000757107
-0.00112144
0.000668719
-0.00112061
0.000581522
-0.00112075
0.000496064
-0.00112221
0.000412166
-0.00112491
0.000329352
-0.00112857
0.000247115
-0.0011329
0.000165046
-0.00113767
8.28645e-05
-0.00114274
3.94621e-07
-0.00114809
-8.24446e-05
-0.00115382
-0.000165675
-0.00116017
-0.000249274
-0.00116756
-0.000333256
-0.00117665
-0.00041772
-0.00118839
-0.000502932
-0.00120395
-0.000589472
-0.00122441
-0.000678374
-0.00125016
-0.000771118
-0.00127978
-0.000869229
-0.00130861
-0.000973259
-0.00132759
-0.00108097
-0.00132318
-0.00118491
-0.00127948
-0.0012705
-0.00118274
-0.00131619
-0.00102749
-0.00129741
-0.000822136
-0.00119453
-0.00059104
-0.00100338
-0.000369978
-0.000744008
-0.000193733
-0.000461356
-7.99923e-05
-0.000211557
-2.19482e-05
-3.54273e-05
2.48007e-07
5.99742e-05
3.27319e-06
8.6802e-05
5.10278e-05
-4.4495e-05
0.000129773
-0.00012339
0.000288703
-0.000218966
0.00043177
-0.00032655
0.000584425
-0.000442201
0.000740476
-0.00056011
0.000886761
-0.000673327
0.00101029
-0.00077526
0.0011008
-0.0008609
0.0011526
-0.000927506
0.00116509
-0.00097479
0.00114209
-0.0010047
0.00109056
-0.00102084
0.00101889
-0.00102758
0.000935289
-0.00102913
0.00084643
-0.00102883
0.000756802
-0.00102884
0.000668729
-0.00103021
0.000582895
-0.00103317
0.000499028
-0.00103749
0.000416485
-0.00104275
0.000334613
-0.00104856
0.000252918
-0.00105459
0.000171083
-0.00106066
8.89337e-05
-0.00106666
6.39111e-06
-0.00107255
-7.65508e-05
-0.00107837
-0.000159857
-0.00108418
-0.000243464
-0.00109014
-0.000327291
-0.00109661
-0.000411258
-0.00110419
-0.000495352
-0.0011139
-0.000579764
-0.00112718
-0.00066509
-0.00114574
-0.000752557
-0.00117083
-0.000844142
-0.00120183
-0.000942262
-0.00123431
-0.00104848
-0.00125829
-0.00116093
-0.00125799
-0.0012708
-0.0012145
-0.00135968
-0.00111194
-0.00139997
-0.000945459
-0.00136101
-0.000728073
-0.00122077
-0.000491733
-0.000980348
-0.000279063
-0.000674026
-0.000125359
-0.000365262
-3.9679e-05
-0.000121107
-4.3922e-06
2.46875e-05
3.03173e-06
7.93781e-05
5.40595e-05
-4.83095e-05
0.000178082
-0.000131951
0.000372344
-0.000230695
0.000530514
-0.000338739
0.000692469
-0.000451301
0.000853038
-0.000562156
0.000997616
-0.000664598
0.00111273
-0.000752882
0.00118908
-0.000823268
0.00122299
-0.000874511
0.00121633
-0.000907851
0.00117543
-0.000926545
0.00110925
-0.000934992
0.00102734
-0.000937687
0.000937983
-0.000938329
0.000847073
-0.000939351
0.000757824
-0.000941908
0.000671286
-0.000946203
0.000587189
-0.000951903
0.000504728
-0.000958502
0.000423084
-0.000965539
0.00034165
-0.000972687
0.000260066
-0.000979759
0.000178155
-0.000986672
9.58462e-05
-0.000993405
1.31243e-05
-0.000999963
-6.99928e-05
-0.00100635
-0.000153473
-0.00101254
-0.000237269
-0.00101854
-0.000321293
-0.00102438
-0.000405421
-0.00103022
-0.000489503
-0.00103655
-0.000573434
-0.00104435
-0.000657292
-0.00105529
-0.000741622
-0.00107159
-0.000827837
-0.00109534
-0.000918517
-0.00112672
-0.0010171
-0.00116144
-0.00112621
-0.00118816
-0.00124408
-0.00118823
-0.00135961
-0.00113955
-0.00144865
-0.00102498
-0.00147559
-0.000842566
-0.00140318
-0.000612963
-0.00120995
-0.000377907
-0.000909083
-0.000185668
-0.0005575
-6.59169e-05
-0.000240858
-1.23363e-05
-2.88932e-05
2.04118e-06
6.50006e-05
5.61007e-05
-4.97037e-05
0.000227786
-0.000135081
0.000457722
-0.000233911
0.000629344
-0.000339332
0.00079789
-0.00044601
0.000959716
-0.000547701
0.00109931
-0.000638274
0.0012033
-0.000713031
0.00126384
-0.000769562
0.00127952
-0.000808041
0.00125481
-0.000830983
0.00119838
-0.000842495
0.00112077
-0.000847196
0.00103204
-0.000849152
0.000939939
-0.000851178
0.0008491
-0.000854688
0.000761333
-0.00085997
0.000676569
-0.000866669
0.000593888
-0.000874212
0.000512272
-0.00088209
0.000430962
-0.000889964
0.000349524
-0.000897669
0.000267771
-0.000905164
0.00018565
-0.000912478
0.00010316
-0.000919661
2.03075e-05
-0.000926756
-6.28978e-05
-0.000933776
-0.000146454
-0.000940695
-0.00023035
-0.000947443
-0.000314545
-0.000953907
-0.000398957
-0.000959972
-0.000483439
-0.00096563
-0.000567776
-0.000971179
-0.000651743
-0.000977514
-0.000735287
-0.000986443
-0.000818909
-0.00100072
-0.000904237
-0.00102328
-0.000994546
-0.00105499
-0.0010945
-0.00109118
-0.00120788
-0.00111841
-0.00133238
-0.00111441
-0.00145265
-0.001054
-0.00153599
-0.000920541
-0.00153664
-0.000718552
-0.00141194
-0.000480215
-0.00114742
-0.000258222
-0.000779493
-0.000101481
-0.000397599
-2.37472e-05
-0.000106627
3.0846e-07
4.09449e-05
5.64091e-05
-4.8591e-05
0.000276377
-0.000132751
0.000541882
-0.000228848
0.000725441
-0.000329076
0.000898117
-0.000427828
0.00105847
-0.000519161
0.00119064
-0.000597732
0.00128187
-0.000659967
0.00132607
-0.00070472
0.00132427
-0.000733364
0.00128346
-0.000749295
0.00121431
-0.000756959
0.00112843
-0.000760686
0.00103577
-0.000763755
0.000943007
-0.000767991
0.000853336
-0.000773928
0.00076727
-0.00078128
0.000683921
-0.00078945
0.000602058
-0.000797881
0.000520702
-0.000806208
0.000439289
-0.000814273
0.000357589
-0.000822064
0.000275561
-0.000829644
0.000193231
-0.000837108
0.000110623
-0.000844538
2.77374e-05
-0.000851997
-5.54385e-05
-0.000859515
-0.000138936
-0.000867084
-0.00022278
-0.000874647
-0.000306983
-0.000882076
-0.000391528
-0.000889178
-0.000476337
-0.000895712
-0.000561241
-0.000901495
-0.000645961
-0.000906629
-0.000730153
-0.000911917
-0.00081362
-0.000919343
-0.000896811
-0.000932223
-0.000981666
-0.000954282
-0.00107244
-0.000986805
-0.00117536
-0.00102401
-0.00129518
-0.00104907
-0.00142759
-0.00103523
-0.00154983
-0.000955106
-0.00161676
-0.000796067
-0.00157098
-0.000574268
-0.00136922
-0.000337192
-0.00101657
-0.000146109
-0.000588682
-3.9002e-05
-0.000213734
-2.30639e-06
4.24917e-06
5.41027e-05
-4.50908e-05
0.000321468
-0.000125302
0.000622093
-0.000216238
0.000816377
-0.000309269
0.000991149
-0.00039876
0.00114796
-0.000479294
0.00127117
-0.000546425
0.001349
-0.000597664
0.00137731
-0.000632953
0.00135956
-0.000654538
0.00130504
-0.000666258
0.00122603
-0.000672441
0.00113461
-0.000676779
0.00104011
-0.00068164
0.000947868
-0.000687973
0.000859669
-0.000695703
0.000775
-0.00070427
0.000692489
-0.000713082
0.000610869
-0.00072173
0.000529351
-0.000730041
0.0004476
-0.00073801
0.000365558
-0.000745723
0.000283274
-0.000753295
0.000200804
-0.000760837
0.000118164
-0.000768432
3.53332e-05
-0.000776146
-4.77249e-05
-0.000784012
-0.00013107
-0.00079204
-0.000214752
-0.000800205
-0.000298818
-0.000808427
-0.000383305
-0.000816551
-0.000468213
-0.00082432
-0.000553472
-0.000831385
-0.000638896
-0.000837404
-0.000724134
-0.000842321
-0.000808703
-0.000846885
-0.000892247
-0.000853319
-0.000975232
-0.000865606
-0.00106016
-0.000888271
-0.0011527
-0.000922459
-0.00126099
-0.000959871
-0.00139018
-0.000978614
-0.00153109
-0.000947077
-0.0016483
-0.000838307
-0.00167975
-0.000649465
-0.00155806
-0.000414601
-0.00125143
-0.000197754
-0.000805529
-5.87604e-05
-0.000352728
-5.87546e-06
-4.86357e-05
4.82273e-05
-3.94758e-05
0.000360944
-0.000113334
0.000695952
-0.000197121
0.000900163
-0.000281505
0.00107553
-0.000360997
0.00122745
-0.000430846
0.00134102
-0.000487517
0.00140567
-0.000529482
0.00141928
-0.000557514
0.00138759
-0.000574366
0.00132189
-0.000583917
0.00123558
-0.000590038
0.00114073
-0.000595634
0.0010457
-0.000602223
0.000954458
-0.00061011
0.000867556
-0.000618889
0.000783778
-0.000627964
0.000701564
-0.000636874
0.00061978
-0.000645402
0.000537879
-0.000653529
0.000455726
-0.000661348
0.000373378
-0.000668991
0.000290917
-0.00067658
0.000208393
-0.000684216
0.0001258
-0.00069197
4.30876e-05
-0.000699897
-3.9798e-05
-0.000708027
-0.00012294
-0.000716376
-0.000206402
-0.000724943
-0.000290252
-0.000733691
-0.000374557
-0.000742533
-0.000459372
-0.000751289
-0.000544716
-0.000759658
-0.000630527
-0.0007672
-0.000716592
-0.000773436
-0.000802467
-0.000778178
-0.000887504
-0.000782212
-0.000971198
-0.000788193
-0.00105418
-0.000800962
-0.00113993
-0.000825665
-0.00123629
-0.000862226
-0.00135362
-0.000897751
-0.00149556
-0.0009035
-0.00164255
-0.000844074
-0.00173918
-0.000698541
-0.00170359
-0.000482213
-0.00146776
-0.000252328
-0.00103541
-8.31677e-05
-0.000521888
-1.03786e-05
-0.000121425
3.78487e-05
-3.21177e-05
0.000393061
-9.75938e-05
0.000761428
-0.000172682
0.000975252
-0.000247451
0.0011503
-0.000316665
0.00129667
-0.000376299
0.00140066
-0.000423672
0.00145305
-0.000458033
0.00145364
-0.000480693
0.00141025
-0.000494567
0.00133577
-0.000503253
0.00124427
-0.000509982
0.00114746
-0.000516874
0.00105259
-0.000524774
0.000962358
-0.000533587
0.000876369
-0.000542802
0.000792993
-0.000551919
0.000710681
-0.000560653
0.000628514
-0.000568944
0.000546169
-0.000576875
0.000463658
-0.000584585
0.000381087
-0.000592208
0.000298541
-0.000599856
0.000216041
-0.000607612
0.000133556
-0.000615535
5.10105e-05
-0.000623669
-3.16643e-05
-0.000632037
-0.000114572
-0.000640655
-0.000197784
-0.000649527
-0.000281379
-0.00065864
-0.000365443
-0.000667953
-0.000450059
-0.000677368
-0.0005353
-0.000686691
-0.000621204
-0.000695574
-0.000707709
-0.000703487
-0.000794553
-0.00070983
-0.000881162
-0.000714349
-0.000966679
-0.000718036
-0.00105049
-0.000724255
-0.00113371
-0.000738902
-0.00122164
-0.000767256
-0.00132527
-0.000806068
-0.00145675
-0.000834939
-0.00161368
-0.000817358
-0.00175676
-0.000718598
-0.00180235
-0.000533416
-0.00165294
-0.00030455
-0.00126428
-0.000111215
-0.000715224
-1.58191e-05
-0.00021682
2.20296e-05
-2.34404e-05
0.000416502
-7.88874e-05
0.000816875
-0.000144121
0.00104049
-0.000208696
0.00121488
-0.000267668
0.00135564
-0.00031774
0.00145073
-0.000356975
0.00149228
-0.000385191
0.00148186
-0.000403953
0.00142901
-0.000416044
0.00134786
-0.000424574
0.00125279
-0.000432074
0.00115496
-0.000439987
0.00106051
-0.000448686
0.000971057
-0.000457887
0.000885571
-0.000467115
0.000802221
-0.000476018
0.000719584
-0.000484467
0.000636963
-0.00049251
0.000554212
-0.000500278
0.000471426
-0.000507918
0.000388728
-0.000515553
0.000306175
-0.000523274
0.000223763
-0.000531154
0.000141436
-0.000539243
5.91e-05
-0.000547583
-2.33251e-05
-0.000556189
-0.000105966
-0.000565072
-0.0001889
-0.000574237
-0.000272215
-0.000583673
-0.000356006
-0.000593361
-0.000440372
-0.000603248
-0.000525413
-0.000613229
-0.000611223
-0.000623083
-0.000697856
-0.000632405
-0.000785231
-0.000640573
-0.000872994
-0.000646881
-0.000960371
-0.000651113
-0.00104626
-0.000654733
-0.00113009
-0.000662234
-0.00121414
-0.000680646
-0.00130685
-0.000714022
-0.00142338
-0.000752623
-0.00157508
-0.000765589
-0.00174379
-0.000710907
-0.00185703
-0.000564374
-0.00179948
-0.000349381
-0.00147927
-0.000140905
-0.000923699
-2.2095e-05
-0.000335631
-6.53905e-08
-1.38849e-05
0.000430387
-5.8013e-05
0.000861003
-0.000112564
0.00109504
-0.000166654
0.00126897
-0.000215613
0.0014046
-0.000256818
0.00149193
-0.000288954
0.00152442
-0.000312196
0.0015051
-0.000328116
0.00144493
-0.000339153
0.00135889
-0.000347814
0.00126146
-0.000355964
0.00116311
-0.00036451
0.00106905
-0.000373544
0.000980091
-0.000382736
0.000894763
-0.000391717
0.000811202
-0.00040028
0.000728148
-0.000408412
0.000645094
-0.000416217
0.000562017
-0.000423842
0.000479051
-0.000431421
0.000396307
-0.00043906
0.000313814
-0.000446838
0.00023154
-0.00045482
0.000149418
-0.000463058
6.73384e-05
-0.000471594
-1.47886e-05
-0.000480442
-9.71178e-05
-0.000489609
-0.000179734
-0.00049909
-0.000262734
-0.000508876
-0.000346221
-0.000518946
-0.000430302
-0.000529268
-0.00051509
-0.000539784
-0.000600708
-0.000550365
-0.000687275
-0.000560751
-0.000774844
-0.000570463
-0.000863282
-0.000578766
-0.000952069
-0.000584888
-0.00104013
-0.000588847
-0.00112613
-0.000593019
-0.00120997
-0.000603484
-0.00129639
-0.000627901
-0.00139896
-0.000666187
-0.00153679
-0.000697533
-0.00171245
-0.000679824
-0.00187474
-0.000574252
-0.00190505
-0.000383103
-0.00167042
-0.000169661
-0.00113714
-2.94163e-05
-0.000475876
-2.94818e-05
-3.87092e-06
0.000434258
-3.57351e-05
0.000892867
-7.90179e-05
0.00113832
-0.000122527
0.00131248
-0.000161785
0.00144385
-0.000194769
0.00152492
-0.000220653
0.0015503
-0.000239789
0.00152423
-0.000253562
0.00145871
-0.000263923
0.00136925
-0.000272742
0.00127027
-0.000281295
0.00117166
-0.000290097
0.00107785
-0.000299096
0.000989091
-0.000308008
0.000903674
-0.000316586
0.000819781
-0.000324746
0.000736308
-0.000332544
0.000652892
-0.00034011
0.000569582
-0.000347581
0.000486523
-0.000355077
0.000403803
-0.000362688
0.000321425
-0.000370484
0.000239337
-0.000378531
0.000157464
-0.000386889
7.56969e-05
-0.000395605
-6.07223e-06
-0.000404695
-8.80277e-05
-0.000414162
-0.000170266
-0.000423995
-0.000252901
-0.000434177
-0.000336039
-0.000444683
-0.000419795
-0.000455487
-0.000504286
-0.000466546
-0.000589649
-0.000477783
-0.000676037
-0.000489039
-0.000763588
-0.000499989
-0.000852333
-0.000510047
-0.000942011
-0.000518363
-0.00103182
-0.000524202
-0.00112029
-0.000528155
-0.00120602
-0.000534137
-0.00129041
-0.000550087
-0.00138301
-0.000582361
-0.00150452
-0.00062145
-0.00167336
-0.000631367
-0.00186483
-0.000564765
-0.00197165
-0.000403832
-0.00183136
-0.000195041
-0.00134593
-3.78466e-05
-0.00063307
-6.73283e-05
6.06413e-06
0.000428193
-1.27223e-05
0.000911653
-4.43748e-05
0.00116997
-7.73068e-05
0.00134541
-0.000107183
0.00147373
-0.000132478
0.00155021
-0.00015274
0.00157056
-0.000168353
0.00153985
-0.000180383
0.00147074
-0.000190211
0.00137908
-0.000199081
0.00127914
-0.000207762
0.00118035
-0.0002165
0.00108659
-0.000225194
0.000997785
-0.000233643
0.000912123
-0.000241722
0.00082786
-0.000249434
0.000744019
-0.000256873
0.000660332
-0.000264172
0.000576881
-0.000271454
0.000493805
-0.000278823
0.000411172
-0.000286359
0.000328962
-0.00029413
0.000247108
-0.000302199
0.000165534
-0.000310642
8.41397e-05
-0.000319513
2.79921e-06
-0.000328839
-7.87018e-05
-0.000338619
-0.000160486
-0.000348833
-0.000242686
-0.000359457
-0.000325415
-0.000370465
-0.000408788
-0.000381824
-0.000492927
-0.000393499
-0.000577974
-0.000405435
-0.000664101
-0.000417527
-0.000751496
-0.00042956
-0.0008403
-0.000441113
-0.000930457
-0.000451471
-0.00102146
-0.000459698
-0.00111206
-0.000465314
-0.0012004
-0.000470084
-0.00128564
-0.000480207
-0.00137288
-0.000504745
-0.00147998
-0.000543929
-0.00163417
-0.000571919
-0.00183684
-0.000539339
-0.00200423
-0.000411467
-0.00195923
-0.000215282
-0.00154212
-4.6962e-05
-0.00080139