/*--------------------------------*- C++ -*----------------------------------*\
  =========                 |
  \\      /  F ield         | OpenFOAM: The Open Source CFD Toolbox
   \\    /   O peration     | Website:  https://openfoam.org
    \\  /    A nd           | Version:  7
     \\/     M anipulation  |
\*---------------------------------------------------------------------------*/
FoamFile
{
    version     2.0;
    format      ascii;
    class       volVectorField;
    location    "1300";
    object      U;
}
// * * * * * * * * * * * * * * * * * * * * * * * * * * * * * * * * * * * * * //

dimensions      [0 1 -1 0 0 0 0];

internalField   nonuniform List<vector> 
2500
(
(0.000207648 -0.000201067 0)
(0.00186717 -0.000571321 0)
(0.00447425 -0.000697885 0)
(0.0071632 -0.000600134 0)
(0.00922926 -0.000419009 0)
(0.0104505 -0.00026434 0)
(0.0109303 -0.000188007 0)
(0.0108811 -0.000185882 0)
(0.0104506 -0.000219869 0)
(0.00963414 -0.000245433 0)
(0.00828251 -0.000228684 0)
(0.00616338 -0.000150769 0)
(0.00301946 -2.64362e-06 0)
(-0.00139295 0.00022107 0)
(-0.00727851 0.000523513 0)
(-0.0147697 0.000908229 0)
(-0.0238891 0.00137523 0)
(-0.0345065 0.00191286 0)
(-0.0463042 0.00248793 0)
(-0.058756 0.00303815 0)
(-0.0711337 0.00347375 0)
(-0.0825436 0.00369011 0)
(-0.0919966 0.0035888 0)
(-0.09851 0.00310467 0)
(-0.101219 0.00223197 0)
(-0.0994487 0.00102872 0)
(-0.0929319 -0.000374247 0)
(-0.0817416 -0.00181131 0)
(-0.0663453 -0.00310893 0)
(-0.0475999 -0.00410025 0)
(-0.0267244 -0.00464024 0)
(-0.00520112 -0.00460622 0)
(0.0154444 -0.00393611 0)
(0.0337422 -0.00278487 0)
(0.048385 -0.0013719 0)
(0.0584172 0.000125113 0)
(0.0634586 0.00149638 0)
(0.0637219 0.00253382 0)
(0.0600132 0.00311158 0)
(0.0534981 0.00322468 0)
(0.0454083 0.00298638 0)
(0.0368473 0.0025496 0)
(0.0286521 0.00204874 0)
(0.0213425 0.0015744 0)
(0.0151482 0.00117428 0)
(0.0100804 0.000863465 0)
(0.00602937 0.000631279 0)
(0.00290134 0.000436056 0)
(0.000795427 0.000192817 0)
(-8.20083e-05 -8.74081e-05 0)
(0.000566116 -0.00181754 0)
(0.00437677 -0.0043148 0)
(0.0095832 -0.00511662 0)
(0.0146047 -0.00444064 0)
(0.0181619 -0.00299825 0)
(0.0197684 -0.00145767 0)
(0.0194626 -0.000192313 0)
(0.0174558 0.000765795 0)
(0.0138331 0.00162547 0)
(0.00840557 0.00266545 0)
(0.00073636 0.00410302 0)
(-0.00973078 0.00604411 0)
(-0.0235249 0.0084929 0)
(-0.0410085 0.0113823 0)
(-0.0622617 0.014574 0)
(-0.0869773 0.0178422 0)
(-0.114397 0.0208665 0)
(-0.143328 0.0232547 0)
(-0.172245 0.0245979 0)
(-0.199471 0.0245392 0)
(-0.223347 0.0228314 0)
(-0.242394 0.0193747 0)
(-0.255413 0.0142335 0)
(-0.261546 0.00764047 0)
(-0.26032 -1.47425e-05 0)
(-0.251668 -0.00821596 0)
(-0.235783 -0.0163926 0)
(-0.213113 -0.023991 0)
(-0.184425 -0.0304482 0)
(-0.150808 -0.03523 0)
(-0.113672 -0.0378743 0)
(-0.074713 -0.0380375 0)
(-0.0358425 -0.0355752 0)
(0.00100557 -0.0306701 0)
(0.0339858 -0.0238208 0)
(0.0614217 -0.0157534 0)
(0.081996 -0.00728882 0)
(0.0949872 0.000690197 0)
(0.100261 0.00734035 0)
(0.0984301 0.0120794 0)
(0.090951 0.0147099 0)
(0.0796093 0.0154336 0)
(0.0662311 0.0147149 0)
(0.0524143 0.0131076 0)
(0.0393373 0.0111173 0)
(0.0276943 0.00911054 0)
(0.0177738 0.00724902 0)
(0.00968251 0.00543485 0)
(0.00372636 0.00334338 0)
(0.000329317 0.000918551 0)
(0.000785737 -0.00449556 0)
(0.00568911 -0.00969417 0)
(0.0117185 -0.0109168 0)
(0.016907 -0.00900543 0)
(0.019764 -0.00542359 0)
(0.0197126 -0.00146927 0)
(0.0166704 0.00215319 0)
(0.0106352 0.0054238 0)
(0.00138186 0.00878171 0)
(-0.0116216 0.0127933 0)
(-0.029088 0.0178446 0)
(-0.0516451 0.0240128 0)
(-0.0795983 0.0310863 0)
(-0.112718 0.0386015 0)
(-0.15013 0.0458782 0)
(-0.19036 0.0520975 0)
(-0.231518 0.0564359 0)
(-0.271569 0.0582071 0)
(-0.308589 0.056965 0)
(-0.340952 0.0525437 0)
(-0.367422 0.0450423 0)
(-0.387153 0.0347759 0)
(-0.39963 0.0222172 0)
(-0.404596 0.00794749 0)
(-0.401977 -0.00738302 0)
(-0.391745 -0.0230931 0)
(-0.373938 -0.0384723 0)
(-0.348826 -0.0527309 0)
(-0.316897 -0.0650324 0)
(-0.278917 -0.0745389 0)
(-0.235974 -0.0804785 0)
(-0.189505 -0.0822408 0)
(-0.141273 -0.0794938 0)
(-0.093281 -0.0722933 0)
(-0.04764 -0.0611882 0)
(-0.00634416 -0.0471839 0)
(0.0288826 -0.0315714 0)
(0.0566821 -0.0157979 0)
(0.0763629 -0.00115383 0)
(0.0876516 0.0111644 0)
(0.0908107 0.0202491 0)
(0.087094 0.0257365 0)
(0.0782066 0.027859 0)
(0.0660384 0.0273058 0)
(0.0523896 0.024976 0)
(0.0387214 0.0217248 0)
(0.0260341 0.0181225 0)
(0.0149681 0.0142395 0)
(0.00625657 0.00958336 0)
(0.000705231 0.00358687 0)
(0.000917687 -0.00772717 0)
(0.00606864 -0.0155919 0)
(0.0115465 -0.0165375 0)
(0.0151639 -0.0124512 0)
(0.0154177 -0.00573289 0)
(0.011749 0.00170053 0)
(0.00393357 0.00894362 0)
(-0.0083776 0.0161049 0)
(-0.0258497 0.0239473 0)
(-0.0492981 0.0332216 0)
(-0.0793603 0.044208 0)
(-0.116134 0.0565654 0)
(-0.158951 0.0694179 0)
(-0.206358 0.0815429 0)
(-0.256316 0.0916114 0)
(-0.306542 0.0984379 0)
(-0.354862 0.101174 0)
(-0.399467 0.0993985 0)
(-0.439024 0.0930974 0)
(-0.472658 0.0825736 0)
(-0.499843 0.0683258 0)
(-0.520278 0.0509505 0)
(-0.533772 0.0310796 0)
(-0.540164 0.00935189 0)
(-0.539291 -0.0135753 0)
(-0.530964 -0.0369748 0)
(-0.515058 -0.0599951 0)
(-0.491554 -0.0816668 0)
(-0.460553 -0.100928 0)
(-0.422368 -0.116641 0)
(-0.377624 -0.127669 0)
(-0.32734 -0.133005 0)
(-0.272985 -0.131957 0)
(-0.216493 -0.124323 0)
(-0.160178 -0.110537 0)
(-0.106524 -0.0917075 0)
(-0.0578799 -0.069534 0)
(-0.0161153 -0.0460207 0)
(0.0175763 -0.023082 0)
(0.0426046 -0.00246044 0)
(0.0589072 0.0146073 0)
(0.0667441 0.0271975 0)
(0.0672266 0.0349354 0)
(0.0619102 0.0381625 0)
(0.0525847 0.037783 0)
(0.0410414 0.0349323 0)
(0.0288313 0.030568 0)
(0.0171897 0.025032 0)
(0.00742131 0.0177403 0)
(0.000862112 0.00736609 0)
(0.000999761 -0.0110183 0)
(0.00561098 -0.0208273 0)
(0.00922894 -0.0203479 0)
(0.00967765 -0.0129011 0)
(0.00561894 -0.00193474 0)
(-0.00346597 0.0101283 0)
(-0.0180417 0.0223874 0)
(-0.0388637 0.0352862 0)
(-0.0668659 0.0497645 0)
(-0.1027 0.0663481 0)
(-0.146265 0.0846643 0)
(-0.196485 0.103482 0)
(-0.251421 0.121072 0)
(-0.308626 0.135638 0)
(-0.365593 0.145696 0)
(-0.420145 0.150294 0)
(-0.470635 0.149066 0)
(-0.515979 0.142134 0)
(-0.55555 0.129958 0)
(-0.589021 0.113155 0)
(-0.61623 0.0923917 0)
(-0.637095 0.0683331 0)
(-0.651558 0.0416227 0)
(-0.659535 0.0128799 0)
(-0.660914 -0.0172509 0)
(-0.655568 -0.0480321 0)
(-0.643294 -0.0785959 0)
(-0.623808 -0.10794 0)
(-0.596808 -0.134894 0)
(-0.562069 -0.158096 0)
(-0.51955 -0.176063 0)
(-0.469542 -0.187328 0)
(-0.412849 -0.190649 0)
(-0.350948 -0.18525 0)
(-0.28605 -0.171109 0)
(-0.220993 -0.149153 0)
(-0.158938 -0.12128 0)
(-0.102889 -0.0900924 0)
(-0.0551333 -0.0584426 0)
(-0.0168606 -0.0288478 0)
(0.0118038 -0.00308415 0)
(0.0312401 0.0176464 0)
(0.0420017 0.0326742 0)
(0.0452928 0.0418448 0)
(0.0426327 0.0456968 0)
(0.0357479 0.0452987 0)
(0.0264015 0.0417598 0)
(0.0162516 0.0356003 0)
(0.00711016 0.0261579 0)
(0.000796524 0.0113833 0)
(0.000995744 -0.0139233 0)
(0.00416184 -0.0242943 0)
(0.00458086 -0.0208778 0)
(0.000395328 -0.0087253 0)
(-0.00946779 0.00766138 0)
(-0.0255709 0.0256004 0)
(-0.0486572 0.0444903 0)
(-0.0797068 0.0650042 0)
(-0.119434 0.0877987 0)
(-0.167656 0.11256 0)
(-0.223027 0.137834 0)
(-0.283245 0.161467 0)
(-0.345543 0.181238 0)
(-0.407227 0.19537 0)
(-0.466077 0.202793 0)
(-0.520509 0.20316 0)
(-0.569546 0.196694 0)
(-0.612683 0.183978 0)
(-0.649728 0.165755 0)
(-0.680675 0.142801 0)
(-0.705651 0.11587 0)
(-0.724862 0.0856781 0)
(-0.73853 0.0528677 0)
(-0.746832 0.0180296 0)
(-0.749882 -0.0182341 0)
(-0.747701 -0.0552899 0)
(-0.74008 -0.0924405 0)
(-0.726568 -0.128824 0)
(-0.706552 -0.163326 0)
(-0.679285 -0.194541 0)
(-0.643967 -0.220805 0)
(-0.599939 -0.240264 0)
(-0.546955 -0.251031 0)
(-0.485476 -0.251493 0)
(-0.416918 -0.240724 0)
(-0.343811 -0.218889 0)
(-0.269724 -0.187504 0)
(-0.198851 -0.149419 0)
(-0.135245 -0.108402 0)
(-0.0819083 -0.0683334 0)
(-0.0401295 -0.0323335 0)
(-0.00953368 -0.00226559 0)
(0.0110462 0.0211384 0)
(0.0228009 0.0375974 0)
(0.0271588 0.0473273 0)
(0.0257836 0.0511098 0)
(0.0204656 0.0499392 0)
(0.0130784 0.0443203 0)
(0.00574945 0.033478 0)
(0.00059104 0.0148944 0)
(0.000839891 -0.0158647 0)
(0.00148399 -0.0247697 0)
(-0.00259571 -0.0166937 0)
(-0.0126865 0.00145135 0)
(-0.0295729 0.0244065 0)
(-0.0539294 0.0495747 0)
(-0.0866556 0.0766473 0)
(-0.128511 0.106088 0)
(-0.17937 0.137649 0)
(-0.237803 0.169784 0)
(-0.301286 0.200013 0)
(-0.366784 0.225702 0)
(-0.431384 0.244736 0)
(-0.492722 0.255853 0)
(-0.549141 0.258661 0)
(-0.599644 0.25344 0)
(-0.643755 0.240895 0)
(-0.681376 0.221941 0)
(-0.712686 0.197544 0)
(-0.738067 0.168651 0)
(-0.758057 0.136138 0)
(-0.773248 0.100764 0)
(-0.7842 0.0631387 0)
(-0.791392 0.0237877 0)
(-0.795175 -0.0168206 0)
(-0.795693 -0.0582879 0)
(-0.792829 -0.100201 0)
(-0.786141 -0.141961 0)
(-0.774903 -0.182703 0)
(-0.758035 -0.221246 0)
(-0.734159 -0.256008 0)
(-0.701766 -0.28496 0)
(-0.65946 -0.305726 0)
(-0.606279 -0.315856 0)
(-0.542139 -0.313253 0)
(-0.468299 -0.296703 0)
(-0.387667 -0.266454 0)
(-0.304743 -0.224643 0)
(-0.225057 -0.175292 0)
(-0.154077 -0.123638 0)
(-0.0958038 -0.0748715 0)
(-0.0516992 -0.0327857 0)
(-0.0207491 0.000865804 0)
(-0.000744893 0.0259462 0)
(0.0103088 0.0427876 0)
(0.0143146 0.0520122 0)
(0.0132083 0.0544168 0)
(0.00901358 0.0503545 0)
(0.00400097 0.0389277 0)
(0.000362261 0.0174927 0)
(0.000465104 -0.0160976 0)
(-0.00257312 -0.0209736 0)
(-0.0122844 -0.00661759 0)
(-0.0292331 0.0186591 0)
(-0.0539496 0.0492727 0)
(-0.0871856 0.0828786 0)
(-0.129665 0.119124 0)
(-0.181396 0.157664 0)
(-0.241055 0.196945 0)
(-0.306055 0.234256 0)
(-0.37316 0.266551 0)
(-0.4392 0.291289 0)
(-0.501573 0.306906 0)
(-0.558433 0.312869 0)
(-0.608667 0.309467 0)
(-0.651767 0.297531 0)
(-0.68771 0.278191 0)
(-0.716853 0.25269 0)
(-0.739846 0.222256 0)
(-0.757534 0.188019 0)
(-0.77085 0.150941 0)
(-0.780686 0.111752 0)
(-0.787833 0.0709833 0)
(-0.79295 0.0290218 0)
(-0.7965 -0.0138891 0)
(-0.798719 -0.0576118 0)
(-0.799649 -0.102007 0)
(-0.799007 -0.146807 0)
(-0.796171 -0.191559 0)
(-0.790074 -0.235503 0)
(-0.779209 -0.277393 0)
(-0.761647 -0.315384 0)
(-0.735129 -0.347026 0)
(-0.697345 -0.369377 0)
(-0.646444 -0.379275 0)
(-0.581686 -0.373882 0)
(-0.504098 -0.351475 0)
(-0.416955 -0.312306 0)
(-0.325824 -0.259214 0)
(-0.237864 -0.197623 0)
(-0.160275 -0.134607 0)
(-0.0982374 -0.0770097 0)
(-0.0533134 -0.0293793 0)
(-0.0235782 0.00686649 0)
(-0.0055597 0.0324465 0)
(0.00361529 0.0482918 0)
(0.00645897 0.055247 0)
(0.00528982 0.0535872 0)
(0.00248777 0.0423764 0)
(0.000209263 0.0191571 0)
(-0.000171811 -0.0137878 0)
(-0.00796496 -0.0118319 0)
(-0.0241203 0.0102005 0)
(-0.0484361 0.0435038 0)
(-0.0812303 0.0826389 0)
(-0.123139 0.125388 0)
(-0.1743 0.170822 0)
(-0.233642 0.217344 0)
(-0.298699 0.262102 0)
(-0.366137 0.301645 0)
(-0.432534 0.332912 0)
(-0.494984 0.353888 0)
(-0.551372 0.36377 0)
(-0.600397 0.362779 0)
(-0.641478 0.35186 0)
(-0.674645 0.332388 0)
(-0.70043 0.305938 0)
(-0.719735 0.274096 0)
(-0.73369 0.238317 0)
(-0.743496 0.199821 0)
(-0.750286 0.159529 0)
(-0.75504 0.118057 0)
(-0.758566 0.075789 0)
(-0.761477 0.0329082 0)
(-0.764202 -0.010563 0)
(-0.767038 -0.0546706 0)
(-0.770132 -0.0994831 0)
(-0.77341 -0.14505 0)
(-0.776532 -0.191318 0)
(-0.778808 -0.237985 0)
(-0.779081 -0.284332 0)
(-0.775577 -0.329077 0)
(-0.765826 -0.370213 0)
(-0.746792 -0.404869 0)
(-0.715239 -0.429359 0)
(-0.668328 -0.439568 0)
(-0.604475 -0.431709 0)
(-0.524345 -0.403373 0)
(-0.431628 -0.354716 0)
(-0.333156 -0.289381 0)
(-0.237974 -0.214577 0)
(-0.15522 -0.139718 0)
(-0.0912481 -0.0736273 0)
(-0.047402 -0.0215372 0)
(-0.020429 0.0158022 0)
(-0.00547194 0.0401125 0)
(0.00120511 0.0527778 0)
(0.00267418 0.0543865 0)
(0.00160608 0.0442016 0)
(0.000183942 0.0201681 0)
(-0.0010725 -0.00816725 0)
(-0.0144154 0.00340433 0)
(-0.0373664 0.0341402 0)
(-0.0690413 0.0760425 0)
(-0.109496 0.12413 0)
(-0.158985 0.175942 0)
(-0.216766 0.229508 0)
(-0.280679 0.281867 0)
(-0.347451 0.329208 0)
(-0.413471 0.367863 0)
(-0.475509 0.3952 0)
(-0.531122 0.409972 0)
(-0.578761 0.412212 0)
(-0.617729 0.402921 0)
(-0.64808 0.383722 0)
(-0.670502 0.356559 0)
(-0.686141 0.323433 0)
(-0.696391 0.28618 0)
(-0.702688 0.246323 0)
(-0.706336 0.204992 0)
(-0.708405 0.162924 0)
(-0.709722 0.120533 0)
(-0.710884 0.077995 0)
(-0.712284 0.0353004 0)
(-0.714218 -0.00766482 0)
(-0.716952 -0.0510421 0)
(-0.720633 -0.0950166 0)
(-0.725357 -0.139807 0)
(-0.731129 -0.185593 0)
(-0.737778 -0.232434 0)
(-0.74477 -0.280181 0)
(-0.75098 -0.328306 0)
(-0.754492 -0.375616 0)
(-0.75248 -0.41993 0)
(-0.741225 -0.457879 0)
(-0.716458 -0.484948 0)
(-0.674169 -0.495887 0)
(-0.611825 -0.485654 0)
(-0.529723 -0.450896 0)
(-0.432063 -0.391677 0)
(-0.32716 -0.312798 0)
(-0.226234 -0.22385 0)
(-0.14048 -0.137184 0)
(-0.0771176 -0.0638239 0)
(-0.0365919 -0.00931232 0)
(-0.0137817 0.0268027 0)
(-0.00262667 0.0471475 0)
(0.00130344 0.0532498 0)
(0.00144696 0.045019 0)
(0.000288214 0.0209458 0)
(-0.00217965 0.00131124 0)
(-0.0214263 0.0250232 0)
(-0.0510208 0.065063 0)
(-0.0894993 0.115744 0)
(-0.136548 0.172612 0)
(-0.19181 0.232558 0)
(-0.253588 0.292329 0)
(-0.318876 0.347802 0)
(-0.384005 0.394671 0)
(-0.445456 0.429517 0)
(-0.500424 0.450431 0)
(-0.547051 0.45707 0)
(-0.584456 0.450372 0)
(-0.612665 0.432164 0)
(-0.632478 0.404772 0)
(-0.645256 0.370657 0)
(-0.65265 0.3321 0)
(-0.656318 0.290971 0)
(-0.657715 0.248633 0)
(-0.657965 0.20594 0)
(-0.657852 0.163334 0)
(-0.657876 0.120974 0)
(-0.658312 0.0788299 0)
(-0.659291 0.0367682 0)
(-0.660929 -0.00537448 0)
(-0.663379 -0.0477638 0)
(-0.666732 -0.0905871 0)
(-0.671167 -0.134051 0)
(-0.676912 -0.178377 0)
(-0.684178 -0.223812 0)
(-0.693024 -0.270601 0)
(-0.703168 -0.318852 0)
(-0.713735 -0.36827 0)
(-0.722899 -0.417794 0)
(-0.727564 -0.46518 0)
(-0.7233 -0.506596 0)
(-0.704772 -0.536503 0)
(-0.666736 -0.548157 0)
(-0.605613 -0.534949 0)
(-0.521334 -0.492467 0)
(-0.418857 -0.420875 0)
(-0.308414 -0.326726 0)
(-0.203737 -0.222894 0)
(-0.117978 -0.125405 0)
(-0.058457 -0.0473798 0)
(-0.023645 0.0062399 0)
(-0.00618975 0.0377588 0)
(0.000679311 0.0503893 0)
(0.00180995 0.0453548 0)
(0.000485814 0.0218734 0)
(-0.00335797 0.0148812 0)
(-0.0283506 0.0528233 0)
(-0.0639642 0.102344 0)
(-0.108201 0.161523 0)
(-0.160269 0.226364 0)
(-0.219094 0.292809 0)
(-0.282155 0.356347 0)
(-0.345936 0.412054 0)
(-0.406734 0.455596 0)
(-0.461383 0.484153 0)
(-0.507654 0.496737 0)
(-0.544394 0.494021 0)
(-0.571504 0.477917 0)
(-0.589814 0.451103 0)
(-0.600847 0.416532 0)
(-0.606478 0.376994 0)
(-0.608589 0.334784 0)
(-0.608786 0.291544 0)
(-0.608251 0.248263 0)
(-0.607733 0.205406 0)
(-0.607619 0.163085 0)
(-0.608054 0.121219 0)
(-0.60903 0.07964 0)
(-0.610482 0.0381699 0)
(-0.612373 -0.00334732 0)
(-0.614745 -0.0450418 0)
(-0.617644 -0.0870246 0)
(-0.62122 -0.129399 0)
(-0.62573 -0.172312 0)
(-0.631508 -0.216003 0)
(-0.638938 -0.260818 0)
(-0.648379 -0.30717 0)
(-0.659934 -0.355425 0)
(-0.673072 -0.405641 0)
(-0.686137 -0.457064 0)
(-0.695883 -0.507426 0)
(-0.697258 -0.552292 0)
(-0.68378 -0.584852 0)
(-0.648803 -0.596553 0)
(-0.587675 -0.578882 0)
(-0.500233 -0.526286 0)
(-0.392696 -0.439521 0)
(-0.277802 -0.32802 0)
(-0.172117 -0.209265 0)
(-0.0902952 -0.103566 0)
(-0.0383223 -0.0252738 0)
(-0.0113376 0.0229067 0)
(-0.000154776 0.0453654 0)
(0.00229705 0.0453532 0)
(0.000720632 0.0231559 0)
(-0.00444352 0.0323903 0)
(-0.034536 0.0861401 0)
(-0.0751395 0.144926 0)
(-0.12372 0.211875 0)
(-0.178943 0.28335 0)
(-0.239054 0.354221 0)
(-0.300949 0.41893 0)
(-0.360934 0.472172 0)
(-0.415547 0.509974 0)
(-0.462149 0.530372 0)
(-0.499211 0.533459 0)
(-0.52638 0.521014 0)
(-0.544393 0.495953 0)
(-0.55483 0.461717 0)
(-0.559741 0.421673 0)
(-0.561214 0.37864 0)
(-0.561021 0.33463 0)
(-0.560429 0.290825 0)
(-0.560176 0.247733 0)
(-0.560569 0.205418 0)
(-0.56164 0.16372 0)
(-0.563276 0.122407 0)
(-0.565316 0.0812651 0)
(-0.567608 0.0401293 0)
(-0.57005 -0.00111415 0)
(-0.572636 -0.0425319 0)
(-0.575389 -0.0841523 0)
(-0.578375 -0.125987 0)
(-0.581752 -0.16808 0)
(-0.585778 -0.210546 0)
(-0.590857 -0.253607 0)
(-0.597539 -0.297654 0)
(-0.60644 -0.343287 0)
(-0.618024 -0.391221 0)
(-0.632191 -0.441942 0)
(-0.647609 -0.495034 0)
(-0.660949 -0.548214 0)
(-0.666447 -0.596349 0)
(-0.656333 -0.630995 0)
(-0.622521 -0.641238 0)
(-0.559436 -0.616315 0)
(-0.467275 -0.549794 0)
(-0.354331 -0.444121 0)
(-0.236682 -0.313371 0)
(-0.133895 -0.18126 0)
(-0.0609072 -0.0724243 0)
(-0.0200568 -0.000202139 0)
(-0.0022687 0.0369417 0)
(0.00246979 0.0446288 0)
(0.000940031 0.0247538 0)
(-0.00528796 0.053277 0)
(-0.0394213 0.123915 0)
(-0.0836886 0.191438 0)
(-0.134989 0.265064 0)
(-0.191449 0.341491 0)
(-0.250768 0.414566 0)
(-0.309529 0.477994 0)
(-0.364138 0.52648 0)
(-0.411562 0.556722 0)
(-0.449814 0.567816 0)
(-0.478143 0.561051 0)
(-0.497024 0.539354 0)
(-0.507956 0.506564 0)
(-0.513064 0.466665 0)
(-0.514609 0.423118 0)
(-0.51455 0.378443 0)
(-0.514273 0.334124 0)
(-0.514549 0.290773 0)
(-0.515649 0.248431 0)
(-0.517522 0.206857 0)
(-0.519976 0.165739 0)
(-0.522794 0.124807 0)
(-0.525793 0.0838733 0)
(-0.528834 0.0428214 0)
(-0.531829 0.00159132 0)
(-0.534779 -0.0398312 0)
(-0.537708 -0.0814292 0)
(-0.540605 -0.123174 0)
(-0.543525 -0.165037 0)
(-0.546581 -0.207005 0)
(-0.55 -0.249127 0)
(-0.554179 -0.2916 0)
(-0.559731 -0.334873 0)
(-0.567491 -0.379722 0)
(-0.578319 -0.427202 0)
(-0.592589 -0.478287 0)
(-0.60929 -0.533005 0)
(-0.624979 -0.58902 0)
(-0.633088 -0.640131 0)
(-0.624404 -0.675649 0)
(-0.589311 -0.681713 0)
(-0.521646 -0.645143 0)
(-0.422895 -0.559369 0)
(-0.304678 -0.430476 0)
(-0.187299 -0.279818 0)
(-0.0928417 -0.138949 0)
(-0.0339624 -0.0351858 0)
(-0.0065032 0.0231722 0)
(0.00201247 0.0423119 0)
(0.00111651 0.0264171 0)
(-0.00576999 0.0766355 0)
(-0.0425945 0.164815 0)
(-0.0890381 0.240331 0)
(-0.141393 0.319319 0)
(-0.197307 0.398891 0)
(-0.254117 0.472046 0)
(-0.308348 0.532092 0)
(-0.356702 0.574079 0)
(-0.396705 0.595619 0)
(-0.427085 0.597013 0)
(-0.44788 0.580805 0)
(-0.460316 0.551012 0)
(-0.466451 0.512192 0)
(-0.468653 0.468552 0)
(-0.469067 0.4233 0)
(-0.469252 0.378392 0)
(-0.470074 0.334665 0)
(-0.471815 0.292191 0)
(-0.474383 0.250662 0)
(-0.477529 0.209678 0)
(-0.480992 0.168905 0)
(-0.484574 0.128121 0)
(-0.488153 0.0872019 0)
(-0.491651 0.0460902 0)
(-0.495032 0.00476799 0)
(-0.498328 -0.0367548 0)
(-0.501568 -0.0784533 0)
(-0.504719 -0.1203 0)
(-0.50777 -0.162242 0)
(-0.510723 -0.204212 0)
(-0.513615 -0.246148 0)
(-0.516582 -0.288046 0)
(-0.519961 -0.330062 0)
(-0.524405 -0.372654 0)
(-0.530929 -0.416767 0)
(-0.540746 -0.46386 0)
(-0.554696 -0.515483 0)
(-0.572105 -0.572093 0)
(-0.589296 -0.631067 0)
(-0.598584 -0.684596 0)
(-0.589008 -0.718902 0)
(-0.549542 -0.716429 0)
(-0.474241 -0.661739 0)
(-0.367327 -0.549915 0)
(-0.245328 -0.394015 0)
(-0.133345 -0.226069 0)
(-0.0540409 -0.0858296 0)
(-0.0133501 0.00163933 0)
(0.000773274 0.0372217 0)
(0.00125392 0.0277867 0)
(-0.00581405 0.101332 0)
(-0.0438229 0.207361 0)
(-0.0909242 0.290031 0)
(-0.142762 0.37299 0)
(-0.19661 0.453966 0)
(-0.249632 0.525361 0)
(-0.298493 0.580404 0)
(-0.340329 0.61476 0)
(-0.373289 0.627131 0)
(-0.396815 0.619105 0)
(-0.411659 0.594455 0)
(-0.419617 0.55812 0)
(-0.423034 0.51508 0)
(-0.424213 0.469415 0)
(-0.424928 0.423794 0)
(-0.426217 0.379472 0)
(-0.428441 0.336665 0)
(-0.431516 0.295031 0)
(-0.435159 0.254082 0)
(-0.439074 0.2134 0)
(-0.443045 0.172717 0)
(-0.446955 0.131898 0)
(-0.450762 0.0908895 0)
(-0.454456 0.0496788 0)
(-0.458041 0.00826853 0)
(-0.461579 -0.0333304 0)
(-0.465109 -0.0751036 0)
(-0.468603 -0.117043 0)
(-0.472036 -0.159113 0)
(-0.475358 -0.201254 0)
(-0.478505 -0.243378 0)
(-0.481428 -0.285378 0)
(-0.484172 -0.32718 0)
(-0.486992 -0.368871 0)
(-0.490533 -0.410933 0)
(-0.495961 -0.454504 0)
(-0.504862 -0.501496 0)
(-0.518549 -0.5541 0)
(-0.536546 -0.613167 0)
(-0.554595 -0.675369 0)
(-0.563444 -0.730275 0)
(-0.550126 -0.759745 0)
(-0.5026 -0.741929 0)
(-0.416542 -0.660283 0)
(-0.301065 -0.51503 0)
(-0.179321 -0.331214 0)
(-0.0805165 -0.154852 0)
(-0.0231571 -0.0304571 0)
(-0.0012812 0.0280264 0)
(0.0013717 0.0284858 0)
(-0.00539689 0.126125 0)
(-0.0430505 0.250043 0)
(-0.089366 0.339046 0)
(-0.139307 0.424654 0)
(-0.189888 0.505509 0)
(-0.238273 0.573702 0)
(-0.281411 0.622654 0)
(-0.316946 0.648848 0)
(-0.343648 0.652182 0)
(-0.361611 0.635539 0)
(-0.372146 0.603801 0)
(-0.37738 0.562575 0)
(-0.379671 0.516933 0)
(-0.381017 0.47053 0)
(-0.382699 0.425328 0)
(-0.385251 0.381884 0)
(-0.388654 0.339917 0)
(-0.392626 0.298853 0)
(-0.396843 0.258167 0)
(-0.401068 0.217521 0)
(-0.405176 0.176751 0)
(-0.409138 0.135805 0)
(-0.412979 0.0946822 0)
(-0.416726 0.0533934 0)
(-0.420407 0.0119428 0)
(-0.424093 -0.0296695 0)
(-0.427833 -0.0714431 0)
(-0.431614 -0.113393 0)
(-0.435412 -0.155513 0)
(-0.439183 -0.197778 0)
(-0.442846 -0.240127 0)
(-0.446288 -0.282451 0)
(-0.449384 -0.324593 0)
(-0.452076 -0.366409 0)
(-0.454532 -0.407924 0)
(-0.457394 -0.449632 0)
(-0.462008 -0.49292 0)
(-0.470339 -0.540291 0)
(-0.484115 -0.594695 0)
(-0.502825 -0.657155 0)
(-0.521099 -0.722718 0)
(-0.527427 -0.77675 0)
(-0.506662 -0.795242 0)
(-0.446842 -0.752054 0)
(-0.347698 -0.632529 0)
(-0.225971 -0.448169 0)
(-0.112338 -0.242558 0)
(-0.036402 -0.0761146 0)
(-0.00422491 0.0132247 0)
(0.00146128 0.0281045 0)
(-0.00454321 0.149773 0)
(-0.0403699 0.291425 0)
(-0.0846057 0.386056 0)
(-0.131509 0.473165 0)
(-0.177953 0.552686 0)
(-0.221231 0.616682 0)
(-0.25867 0.658982 0)
(-0.288437 0.677018 0)
(-0.309873 0.671919 0)
(-0.323598 0.647789 0)
(-0.331282 0.610425 0)
(-0.335145 0.565814 0)
(-0.337334 0.518823 0)
(-0.339413 0.472483 0)
(-0.342177 0.428016 0)
(-0.345761 0.385386 0)
(-0.349932 0.343989 0)
(-0.354353 0.303175 0)
(-0.35876 0.262491 0)
(-0.363011 0.221713 0)
(-0.367073 0.180775 0)
(-0.370982 0.139688 0)
(-0.374798 0.0984751 0)
(-0.378565 0.0571505 0)
(-0.382306 0.0157088 0)
(-0.386091 -0.025863 0)
(-0.389978 -0.0675762 0)
(-0.393959 -0.109464 0)
(-0.398017 -0.151543 0)
(-0.402132 -0.193821 0)
(-0.406246 -0.236281 0)
(-0.41026 -0.27886 0)
(-0.414017 -0.321432 0)
(-0.417325 -0.363793 0)
(-0.420039 -0.405717 0)
(-0.422255 -0.447156 0)
(-0.424637 -0.488672 0)
(-0.428753 -0.532044 0)
(-0.437011 -0.580568 0)
(-0.451479 -0.638012 0)
(-0.471129 -0.705027 0)
(-0.488554 -0.773427 0)
(-0.489234 -0.821999 0)
(-0.456284 -0.819391 0)
(-0.380092 -0.73698 0)
(-0.267971 -0.568438 0)
(-0.146937 -0.345997 0)
(-0.0534009 -0.137548 0)
(-0.00822355 -0.0088168 0)
(0.00147461 0.0261867 0)
(-0.00331559 0.171134 0)
(-0.0359831 0.330212 0)
(-0.0770361 0.42995 0)
(-0.120015 0.517665 0)
(-0.161747 0.594993 0)
(-0.199749 0.654242 0)
(-0.231769 0.689803 0)
(-0.256467 0.700115 0)
(-0.273662 0.687504 0)
(-0.284336 0.657155 0)
(-0.290317 0.615546 0)
(-0.293713 0.56877 0)
(-0.296323 0.521271 0)
(-0.29926 0.475379 0)
(-0.302915 0.431643 0)
(-0.307174 0.389592 0)
(-0.311723 0.348466 0)
(-0.31627 0.307649 0)
(-0.320646 0.266807 0)
(-0.324803 0.225829 0)
(-0.328773 0.184721 0)
(-0.332624 0.143522 0)
(-0.336428 0.102261 0)
(-0.340227 0.0609426 0)
(-0.344034 0.0195468 0)
(-0.347906 -0.0219513 0)
(-0.351908 -0.0635705 0)
(-0.356035 -0.105356 0)
(-0.360271 -0.147338 0)
(-0.364611 -0.189545 0)
(-0.369027 -0.231993 0)
(-0.373458 -0.274676 0)
(-0.377787 -0.317531 0)
(-0.381826 -0.360408 0)
(-0.385327 -0.403044 0)
(-0.388063 -0.445126 0)
(-0.390082 -0.486554 0)
(-0.392139 -0.528057 0)
(-0.396148 -0.572035 0)
(-0.405023 -0.622897 0)
(-0.420915 -0.685166 0)
(-0.441432 -0.757842 0)
(-0.455904 -0.826661 0)
(-0.446309 -0.86081 0)
(-0.395685 -0.821464 0)
(-0.300763 -0.683174 0)
(-0.180766 -0.459498 0)
(-0.0736045 -0.215112 0)
(-0.0135233 -0.0398837 0)
(0.00139019 0.0222517 0)
(-0.00180299 0.189228 0)
(-0.0301615 0.365285 0)
(-0.0671304 0.469844 0)
(-0.105534 0.557555 0)
(-0.142226 0.63219 0)
(-0.174997 0.68655 0)
(-0.202021 0.715678 0)
(-0.22239 0.719011 0)
(-0.236277 0.699977 0)
(-0.244861 0.664662 0)
(-0.249942 0.619988 0)
(-0.253379 0.571937 0)
(-0.256575 0.524411 0)
(-0.260244 0.479059 0)
(-0.264492 0.435886 0)
(-0.269089 0.394149 0)
(-0.273736 0.353052 0)
(-0.278224 0.312079 0)
(-0.282478 0.271016 0)
(-0.286518 0.229839 0)
(-0.290409 0.188597 0)
(-0.294229 0.147333 0)
(-0.298045 0.106066 0)
(-0.301895 0.0647865 0)
(-0.305777 0.0234625 0)
(-0.309735 -0.0179419 0)
(-0.313843 -0.0594495 0)
(-0.318098 -0.101115 0)
(-0.322476 -0.142975 0)
(-0.326981 -0.185068 0)
(-0.3316 -0.227432 0)
(-0.336302 -0.270095 0)
(-0.34102 -0.313055 0)
(-0.345626 -0.356248 0)
(-0.3499 -0.399489 0)
(-0.353534 -0.442441 0)
(-0.35624 -0.484686 0)
(-0.358071 -0.526123 0)
(-0.359987 -0.567847 0)
(-0.364407 -0.613312 0)
(-0.374779 -0.668396 0)
(-0.392796 -0.73777 0)
(-0.413267 -0.816111 0)
(-0.420823 -0.878741 0)
(-0.394586 -0.882538 0)
(-0.321458 -0.784873 0)
(-0.210259 -0.575995 0)
(-0.0954159 -0.306766 0)
(-0.0203492 -0.0816525 0)
(0.00125031 0.0158156 0)
(-0.000109562 0.203278 0)
(-0.0232115 0.395721 0)
(-0.0553867 0.505065 0)
(-0.088768 0.592458 0)
(-0.120276 0.664232 0)
(-0.147994 0.713903 0)
(-0.170496 0.737203 0)
(-0.187225 0.734501 0)
(-0.198579 0.710184 0)
(-0.205778 0.671041 0)
(-0.210458 0.624236 0)
(-0.21415 0.575495 0)
(-0.217881 0.528153 0)
(-0.222054 0.483266 0)
(-0.226608 0.440443 0)
(-0.23129 0.398797 0)
(-0.235862 0.357576 0)
(-0.240206 0.31638 0)
(-0.244316 0.275096 0)
(-0.24825 0.233759 0)
(-0.252085 0.192429 0)
(-0.255892 0.151143 0)
(-0.259732 0.109905 0)
(-0.263636 0.0686925 0)
(-0.267595 0.0274612 0)
(-0.271636 -0.0138329 0)
(-0.275847 -0.0552141 0)
(-0.280231 -0.0967472 0)
(-0.28475 -0.138472 0)
(-0.289408 -0.180435 0)
(-0.294198 -0.222681 0)
(-0.299104 -0.265258 0)
(-0.304093 -0.308202 0)
(-0.309089 -0.351518 0)
(-0.313947 -0.395127 0)
(-0.318407 -0.438788 0)
(-0.322105 -0.482056 0)
(-0.324711 -0.524411 0)
(-0.326363 -0.56587 0)
(-0.32842 -0.60829 0)
(-0.334028 -0.656805 0)
(-0.347 -0.718954 0)
(-0.36733 -0.79767 0)
(-0.384948 -0.878285 0)
(-0.379062 -0.920193 0)
(-0.329126 -0.868418 0)
(-0.232664 -0.688474 0)
(-0.116679 -0.408518 0)
(-0.0287015 -0.135272 0)
(0.00111725 0.00636698 0)
(0.00165499 0.212726 0)
(-0.0154495 0.420788 0)
(-0.0422872 0.535121 0)
(-0.0703594 0.622166 0)
(-0.0966682 0.691195 0)
(-0.119574 0.736651 0)
(-0.138011 0.754939 0)
(-0.151687 0.747248 0)
(-0.1611 0.718753 0)
(-0.167386 0.67676 0)
(-0.171925 0.628517 0)
(-0.175902 0.579431 0)
(-0.180015 0.532314 0)
(-0.184453 0.487748 0)
(-0.189083 0.445079 0)
(-0.19368 0.403371 0)
(-0.198086 0.361951 0)
(-0.202253 0.320525 0)
(-0.20622 0.279055 0)
(-0.21006 0.237605 0)
(-0.213846 0.196233 0)
(-0.217641 0.154961 0)
(-0.221498 0.113779 0)
(-0.225447 0.0726558 0)
(-0.229473 0.0315385 0)
(-0.233587 -0.00962568 0)
(-0.237896 -0.0508611 0)
(-0.242416 -0.092245 0)
(-0.247086 -0.133821 0)
(-0.251912 -0.17564 0)
(-0.256885 -0.217751 0)
(-0.261993 -0.260211 0)
(-0.267216 -0.303075 0)
(-0.272515 -0.346391 0)
(-0.277801 -0.390162 0)
(-0.2829 -0.434269 0)
(-0.287504 -0.478383 0)
(-0.291189 -0.52191 0)
(-0.293626 -0.564265 0)
(-0.295194 -0.605858 0)
(-0.297934 -0.650015 0)
(-0.305882 -0.704376 0)
(-0.322494 -0.777429 0)
(-0.34381 -0.865671 0)
(-0.352675 -0.937152 0)
(-0.324572 -0.931421 0)
(-0.24646 -0.791072 0)
(-0.135338 -0.51532 0)
(-0.0381894 -0.200516 0)
(0.000968788 -0.00656366 0)
(0.00338472 0.21726 0)
(-0.00718464 0.4399 0)
(-0.0282805 0.559668 0)
(-0.0508717 0.646591 0)
(-0.0720424 0.713226 0)
(-0.0903875 0.755137 0)
(-0.105156 0.769363 0)
(-0.116235 0.757761 0)
(-0.124125 0.726114 0)
(-0.12978 0.682081 0)
(-0.134277 0.632894 0)
(-0.138466 0.583638 0)
(-0.142782 0.536692 0)
(-0.147283 0.492293 0)
(-0.15182 0.449629 0)
(-0.156228 0.407773 0)
(-0.160418 0.366136 0)
(-0.164395 0.324507 0)
(-0.168217 0.282897 0)
(-0.171962 0.241379 0)
(-0.175692 0.200002 0)
(-0.179461 0.158774 0)
(-0.183315 0.117672 0)
(-0.18729 0.0766607 0)
(-0.19137 0.035682 0)
(-0.19554 -0.00532549 0)
(-0.199939 -0.0463891 0)
(-0.2046 -0.0875985 0)
(-0.209437 -0.129005 0)
(-0.214451 -0.170661 0)
(-0.219633 -0.212621 0)
(-0.22497 -0.254942 0)
(-0.230447 -0.297692 0)
(-0.236038 -0.34094 0)
(-0.241691 -0.384739 0)
(-0.247296 -0.429073 0)
(-0.252635 -0.473752 0)
(-0.25734 -0.518294 0)
(-0.260935 -0.561931 0)
(-0.263189 -0.604155 0)
(-0.264975 -0.646383 0)
(-0.269383 -0.694555 0)
(-0.281199 -0.759349 0)
(-0.301616 -0.846857 0)
(-0.319372 -0.937822 0)
(-0.309818 -0.973964 0)
(-0.251398 -0.879671 0)
(-0.149914 -0.622041 0)
(-0.0480827 -0.27562 0)
(0.000664596 -0.023421 0)
(0.00493814 0.216692 0)
(0.00127799 0.452716 0)
(-0.013766 0.578449 0)
(-0.0307859 0.665719 0)
(-0.0469117 0.730489 0)
(-0.0609222 0.769663 0)
(-0.0723317 0.780845 0)
(-0.0811397 0.766398 0)
(-0.0877691 0.732534 0)
(-0.0929364 0.687122 0)
(-0.0973928 0.637333 0)
(-0.101682 0.587978 0)
(-0.106038 0.54111 0)
(-0.110442 0.496742 0)
(-0.114771 0.453985 0)
(-0.118923 0.411945 0)
(-0.122868 0.370107 0)
(-0.12664 0.328318 0)
(-0.130308 0.286614 0)
(-0.133941 0.245069 0)
(-0.137596 0.203719 0)
(-0.141316 0.162561 0)
(-0.145144 0.121563 0)
(-0.149123 0.0806864 0)
(-0.15324 0.0398766 0)
(-0.15745 -0.000936755 0)
(-0.161923 -0.0417985 0)
(-0.166727 -0.0827978 0)
(-0.171742 -0.124004 0)
(-0.176965 -0.165471 0)
(-0.182384 -0.207255 0)
(-0.187986 -0.249416 0)
(-0.193755 -0.292023 0)
(-0.199672 -0.335159 0)
(-0.2057 -0.378909 0)
(-0.211769 -0.42332 0)
(-0.217731 -0.468323 0)
(-0.223312 -0.513594 0)
(-0.228069 -0.558432 0)
(-0.231524 -0.601928 0)
(-0.233723 -0.644069 0)
(-0.236454 -0.68846 0)
(-0.244158 -0.745158 0)
(-0.261211 -0.826533 0)
(-0.282796 -0.927161 0)
(-0.287524 -0.997972 0)
(-0.248253 -0.952016 0)
(-0.15967 -0.724179 0)
(-0.0575482 -0.357824 0)
(-5.04488e-06 -0.0446307 0)
(0.00616033 0.211253 0)
(0.00957534 0.458792 0)
(0.000931713 0.591372 0)
(-0.0105023 0.67956 0)
(-0.0216826 0.743136 0)
(-0.0315341 0.780458 0)
(-0.0397984 0.789643 0)
(-0.0465368 0.773385 0)
(-0.0520466 0.738149 0)
(-0.0567717 0.691911 0)
(-0.0611373 0.641761 0)
(-0.0654126 0.592316 0)
(-0.0696734 0.545426 0)
(-0.0738664 0.500983 0)
(-0.0779091 0.458074 0)
(-0.0817587 0.415848 0)
(-0.08543 0.373843 0)
(-0.0889777 0.331941 0)
(-0.0924689 0.290188 0)
(-0.0959655 0.248652 0)
(-0.099517 0.20736 0)