/*--------------------------------*- C++ -*----------------------------------*\
  =========                 |
  \\      /  F ield         | OpenFOAM: The Open Source CFD Toolbox
   \\    /   O peration     | Website:  https://openfoam.org
    \\  /    A nd           | Version:  7
     \\/     M anipulation  |
\*---------------------------------------------------------------------------*/
FoamFile
{
    version     2.0;
    format      ascii;
    class       volScalarField;
    location    "1350";
    object      p;
}
// * * * * * * * * * * * * * * * * * * * * * * * * * * * * * * * * * * * * * //

dimensions      [0 2 -2 0 0 0 0];

internalField   nonuniform List<scalar> 
2500
(
-2.3328e-08
7.07557e-05
-9.21405e-06
-0.000308066
-0.000782488
-0.00137005
-0.00203058
-0.00275953
-0.00358262
-0.00454051
-0.00567326
-0.00701076
-0.00856993
-0.0103505
-0.012329
-0.0144513
-0.0166253
-0.0187193
-0.0205685
-0.0219908
-0.0228113
-0.0228908
-0.0221539
-0.0206171
-0.0184063
-0.0157477
-0.0129629
-0.0104693
-0.00872857
-0.00817861
-0.00915221
-0.011786
-0.0159676
-0.0214013
-0.0276276
-0.034085
-0.0402446
-0.0457058
-0.0502375
-0.0537647
-0.0563377
-0.0580912
-0.0591999
-0.0598397
-0.0601625
-0.0602845
-0.0602836
-0.0602022
-0.060063
-0.0599238
-6.93624e-05
3.42474e-06
-8.0409e-05
-0.000376895
-0.00082931
-0.0013735
-0.00197433
-0.00263325
-0.00337885
-0.00425145
-0.00528987
-0.00652407
-0.00797472
-0.00964959
-0.011537
-0.0136003
-0.0157684
-0.0179299
-0.0199319
-0.0215908
-0.0227141
-0.023132
-0.0227307
-0.021486
-0.0194929
-0.0169685
-0.0142499
-0.0117726
-0.0100171
-0.00944053
-0.0103913
-0.0130283
-0.0172676
-0.0227594
-0.0290016
-0.0354459
-0.0415382
-0.0468375
-0.0511048
-0.0543132
-0.0565805
-0.0580883
-0.0590302
-0.0595787
-0.0598703
-0.060002
-0.0600358
-0.0600012
-0.0598997
-0.059768
-1.94122e-05
4.92684e-05
-5.76682e-05
-0.000380165
-0.000832598
-0.00133921
-0.00186981
-0.00243722
-0.00308249
-0.00385318
-0.00479339
-0.00594349
-0.0073415
-0.00902188
-0.0110046
-0.0132785
-0.0157834
-0.0183974
-0.0209383
-0.0231796
-0.0248821
-0.0258318
-0.0258773
-0.0249674
-0.0231946
-0.0207863
-0.0180792
-0.0155072
-0.0135631
-0.0127272
-0.0133809
-0.0157226
-0.0197073
-0.025033
-0.0311909
-0.0375596
-0.0435613
-0.0487539
-0.0528569
-0.055805
-0.0577283
-0.0588724
-0.059491
-0.0597888
-0.0599103
-0.0599451
-0.0599399
-0.0599043
-0.0598085
-0.0596641
0.000227784
0.000265836
0.000101373
-0.000279955
-0.000755775
-0.00123712
-0.00170303
-0.00218563
-0.00274595
-0.00345508
-0.00438638
-0.00561934
-0.00723879
-0.00932172
-0.011911
-0.0149866
-0.0184453
-0.0220989
-0.0256914
-0.0289323
-0.0315372
-0.0332664
-0.0339553
-0.0335406
-0.0320938
-0.0298175
-0.0270241
-0.0241352
-0.0216455
-0.0200613
-0.0198202
-0.021202
-0.0242555
-0.0287673
-0.0342871
-0.0402117
-0.0459189
-0.0508894
-0.0548283
-0.0576456
-0.0593927
-0.0602813
-0.0605927
-0.060587
-0.0604484
-0.0602868
-0.0601526
-0.0600467
-0.0599167
-0.0597518
0.000707082
0.000676959
0.000417755
-4.44417e-05
-0.000555666
-0.00102958
-0.00146066
-0.00190891
-0.00247501
-0.00328092
-0.00446367
-0.00617109
-0.00854245
-0.0116733
-0.015578
-0.0201658
-0.0252403
-0.0305205
-0.0356761
-0.0403661
-0.0442757
-0.0471477
-0.0488041
-0.0491604
-0.0482455
-0.0462052
-0.0433055
-0.0399313
-0.0365541
-0.0336891
-0.0318292
-0.0313623
-0.0324897
-0.0351681
-0.0390973
-0.0437722
-0.0485925
-0.0529974
-0.0565873
-0.0591747
-0.0607935
-0.0616
-0.0617855
-0.0616002
-0.0612634
-0.0609181
-0.0606382
-0.0604366
-0.0602603
-0.0600834
0.00146225
0.00132821
0.000948815
0.000397178
-0.000168999
-0.000675534
-0.0011471
-0.00169653
-0.00249307
-0.00374289
-0.00567164
-0.00849336
-0.0123638
-0.0173339
-0.0233238
-0.0301256
-0.0374298
-0.0448649
-0.0520379
-0.0585683
-0.0641188
-0.0684194
-0.0712823
-0.0726079
-0.0723942
-0.0707265
-0.0678031
-0.0639435
-0.0595553
-0.0551153
-0.0511264
-0.0480588
-0.0462782
-0.0459714
-0.0470923
-0.049357
-0.0523028
-0.0554002
-0.0581822
-0.060339
-0.0617503
-0.0624648
-0.0626466
-0.0624585
-0.062072
-0.0616463
-0.0612805
-0.0610121
-0.0608068
-0.0606353
0.00253176
0.00226893
0.00176013
0.00110859
0.000451637
-0.000167627
-0.000837329
-0.00175313
-0.00318448
-0.0054415
-0.00882614
-0.0135676
-0.0197629
-0.0273452
-0.0360897
-0.0456482
-0.0555963
-0.0654811
-0.0748602
-0.0833333
-0.0905659
-0.0963026
-0.10037
-0.102676
-0.103219
-0.102048
-0.0992881
-0.0951741
-0.0900092
-0.0841674
-0.0780794
-0.0722109
-0.0670205
-0.062898
-0.0600946
-0.0586672
-0.0584576
-0.0591273
-0.0602487
-0.06142
-0.0623533
-0.0629092
-0.0630866
-0.0629735
-0.0626738
-0.0622989
-0.0619483
-0.0616795
-0.0614838
-0.0613386
0.00392198
0.00352302
0.00288398
0.00211025
0.00129498
0.000410402
-0.000728753
-0.00243165
-0.00508336
-0.00907794
-0.014731
-0.0221985
-0.0314339
-0.0421925
-0.0540753
-0.0665887
-0.0792058
-0.0914169
-0.102766
-0.112877
-0.121463
-0.128323
-0.133333
-0.136431
-0.137636
-0.137008
-0.134618
-0.130612
-0.125174
-0.118535
-0.110982
-0.102865
-0.0945987
-0.086638
-0.0794431
-0.0734152
-0.0688185
-0.0657163
-0.0639514
-0.0631917
-0.063033
-0.0631144
-0.0631913
-0.0631571
-0.0630078
-0.0627848
-0.0625511
-0.0623602
-0.06222
-0.0621193
0.00557818
0.00505
0.00427572
0.00333731
0.00223917
0.000843079
-0.00116314
-0.00421544
-0.00879119
-0.0152987
-0.0239677
-0.0347835
-0.047485
-0.0616142
-0.0765937
-0.0918066
-0.106665
-0.120657
-0.133373
-0.144516
-0.153889
-0.16138
-0.166933
-0.170527
-0.172209
-0.172073
-0.170165
-0.166564
-0.161356
-0.15464
-0.146543
-0.137238
-0.126969
-0.116084
-0.105048
-0.094432
-0.0848549
-0.0768756
-0.0708562
-0.0668474
-0.0645708
-0.0635287
-0.0631873
-0.0631322
-0.0631329
-0.0631134
-0.0630687
-0.0630219
-0.0629769
-0.0629318
0.00734993
0.00670672
0.00578607
0.00460102
0.00302281
0.000772578
-0.00260175
-0.00764101
-0.0148448
-0.0245302
-0.0367335
-0.0511888
-0.0673803
-0.0846373
-0.102239
-0.119505
-0.135861
-0.150869
-0.164227
-0.175753
-0.185361
-0.193031
-0.19877
-0.202594
-0.204567
-0.204812
-0.203369
-0.200278
-0.19557
-0.189267
-0.181378
-0.171918
-0.160934
-0.148557
-0.135064
-0.12093
-0.106866
-0.0937626
-0.0825435
-0.0739152
-0.0681274
-0.0648799
-0.0634712
-0.0631098
-0.063185
-0.0633666
-0.0635467
-0.0636847
-0.0637598
-0.0637744
0.00897923
0.00823999
0.00713746
0.0055728
0.0032489
-0.000267262
-0.00555103
-0.0131847
-0.0235859
-0.0368675
-0.0527839
-0.0707747
-0.0900745
-0.109847
-0.129308
-0.147805
-0.164863
-0.180179
-0.193591
-0.205041
-0.214535
-0.222119
-0.227844
-0.231745
-0.233889
-0.234401
-0.233316
-0.230664
-0.226463
-0.220705
-0.213353
-0.204337
-0.193572
-0.180992
-0.166612
-0.150632
-0.133544
-0.116217
-0.0998604
-0.085811
-0.0751405
-0.0682427
-0.0646733
-0.0634047
-0.0633322
-0.0636755
-0.0640742
-0.0644099
-0.0646149
-0.0646897
0.0101126
0.00928222
0.00793071
0.00580915
0.0024329
-0.00277438
-0.0104606
-0.0211546
-0.0350798
-0.0520512
-0.0714938
-0.0925592
-0.114289
-0.135774
-0.156269
-0.175243
-0.192382
-0.20754
-0.22069
-0.231865
-0.241134
-0.24857
-0.254236
-0.258174
-0.260435
-0.26113
-0.260285
-0.25793
-0.254088
-0.248756
-0.2419
-0.233444
-0.223261
-0.211185
-0.197047
-0.180758
-0.16244
-0.142608
-0.122313
-0.103133
-0.0868647
-0.074923
-0.0677247
-0.0645065
-0.0637903
-0.0641566
-0.0647521
-0.0652801
-0.0656171
-0.0657553
0.0103213
0.00938553
0.00769389
0.00481657
8.58053e-05
-0.00718118
-0.0176273
-0.0316236
-0.0491037
-0.0695317
-0.0920065
-0.11545
-0.13881
-0.161213
-0.18205
-0.200971
-0.217838
-0.232646
-0.245462
-0.256371
-0.26546
-0.272804
-0.278457
-0.282451
-0.284818
-0.28565
-0.284958
-0.282775
-0.279127
-0.274029
-0.267469
-0.259401
-0.249726
-0.238281
-0.22484
-0.209146
-0.19101
-0.170483
-0.148118
-0.1252
-0.103743
-0.0860391
-0.0737669
-0.0671512
-0.0648743
-0.0649191
-0.0656637
-0.0663759
-0.0668533
-0.0670667
0.00916048
0.008094
0.00596049
0.00214014
-0.00419148
-0.0137664
-0.0271343
-0.0444167
-0.0651982
-0.0885871
-0.113409
-0.138454
-0.162687
-0.185371
-0.206088
-0.224682
-0.241163
-0.255623
-0.268176
-0.278919
-0.28793
-0.295266
-0.300966
-0.305046
-0.307521
-0.308468
-0.307885
-0.305801
-0.302244
-0.297234
-0.290783
-0.282878
-0.273473
-0.26246
-0.249655
-0.234785
-0.217517
-0.197565
-0.17492
-0.150214
-0.125049
-0.101984
-0.0838137
-0.0722901
-0.0671032
-0.0661286
-0.0668598
-0.0677644
-0.0684065
-0.0687203
0.00625369
0.00502406
0.00235642
-0.00254873
-0.0106293
-0.0226001
-0.0388367
-0.0591486
-0.082756
-0.108453
-0.13488
-0.160805
-0.185308
-0.207848
-0.228211
-0.2464
-0.262528
-0.276733
-0.289134
-0.299816
-0.308833
-0.316221
-0.322003
-0.326182
-0.328763
-0.32981
-0.329319
-0.327308
-0.323802
-0.31882
-0.312381
-0.304495
-0.295153
-0.284314
-0.271876
-0.257642
-0.241299
-0.222436
-0.200671
-0.175956
-0.149082
-0.122121
-0.0983007
-0.08085
-0.0712176
-0.0680962
-0.068413
-0.0695068
-0.0703497
-0.0708063
0.00136177
-6.16516e-05
-0.00332712
-0.00938873
-0.0192459
-0.0335326
-0.0523908
-0.0752926
-0.10112
-0.128426
-0.15577
-0.181993
-0.206356
-0.228525
-0.248462
-0.266282
-0.282148
-0.296201
-0.308542
-0.319229
-0.328292
-0.335751
-0.341617
-0.345888
-0.348561
-0.349695
-0.349286
-0.347346
-0.34389
-0.338935
-0.332496
-0.324587
-0.315217
-0.304389
-0.29207
-0.278169
-0.26248
-0.244646
-0.224165
-0.200557
-0.173783
-0.14494
-0.116798
-0.0933681
-0.0780456
-0.0713465
-0.0704882
-0.0716686
-0.0727596
-0.0734153
-0.00556827
-0.00720658
-0.011093
-0.0183032
-0.0298452
-0.0462222
-0.0673115
-0.0922583
-0.119663
-0.147928
-0.175623
-0.201732
-0.225717
-0.247432
-0.266965
-0.284493
-0.300184
-0.31416
-0.326489
-0.337203
-0.346315
-0.353833
-0.359765
-0.364108
-0.366854
-0.368058
-0.367724
-0.365854
-0.36246
-0.357553
-0.35114
-0.343232
-0.33384
-0.322978
-0.310657
-0.296861
-0.281509
-0.264381
-0.245058
-0.222926
-0.197405
-0.168567
-0.138075
-0.109701
-0.0882212
-0.076556
-0.073404
-0.0743521
-0.0757503
-0.0766539
-0.0143887
-0.0162488
-0.0207362
-0.0290134
-0.0420504
-0.060189
-0.0830397
-0.109459
-0.13784
-0.166518
-0.194147
-0.219886
-0.243387
-0.264649
-0.283839
-0.301148
-0.316725
-0.330658
-0.342986
-0.353721
-0.362864
-0.370418
-0.376392
-0.380782
-0.383583
-0.384842
-0.384572
-0.382769
-0.379443
-0.3746
-0.368244
-0.360379
-0.351011
-0.340151
-0.327818
-0.314037
-0.298811
-0.282063
-0.263545
-0.242741
-0.218889
-0.191341
-0.160489
-0.128985
-0.101903
-0.0843689
-0.0776203
-0.0777182
-0.0794455
-0.080634
-0.0247717
-0.0268449
-0.0318756
-0.0410823
-0.0553597
-0.0748786
-0.0990041
-0.12636
-0.155206
-0.183885
-0.211174
-0.23641
-0.259404
-0.280254
-0.29916
-0.316302
-0.331795
-0.345694
-0.358012
-0.368748
-0.377898
-0.385465
-0.391459
-0.39588
-0.398719
-0.40002
-0.399804
-0.39806
-0.3948
-0.390027
-0.383745
-0.375954
-0.366655
-0.355852
-0.343559
-0.329804
-0.314631
-0.298058
-0.280006
-0.260163
-0.237865
-0.212164
-0.182455
-0.149872
-0.118643
-0.0951622
-0.083643
-0.0819973
-0.0839507
-0.0854685
-0.0362557
-0.0385183
-0.0440078
-0.0539734
-0.0692083
-0.0897205
-0.114668
-0.142503
-0.17142
-0.199816
-0.226609
-0.251295
-0.273804
-0.294294
-0.312964
-0.329969
-0.345386
-0.359241
-0.371533
-0.38225
-0.391388
-0.398952
-0.404951
-0.409389
-0.412258
-0.41359
-0.413417
-0.411724
-0.408523
-0.403817
-0.397612
-0.389908
-0.380704
-0.37
-0.357803
-0.344131
-0.329031
-0.312563
-0.294764
-0.275527
-0.254421
-0.230556
-0.2028
-0.170899
-0.137474
-0.108879
-0.0919005
-0.0874827
-0.0893565
-0.0912769
-0.0483049
-0.0507204
-0.0565695
-0.0671128
-0.0830254
-0.104174
-0.129556
-0.157512
-0.186221
-0.214163
-0.240394
-0.264537
-0.286607
-0.306783
-0.325252
-0.342132
-0.357471
-0.371271
-0.38352
-0.394204
-0.403319
-0.410869
-0.416866
-0.421314
-0.424203
-0.425557
-0.42542
-0.42377
-0.420619
-0.415973
-0.409839
-0.402221
-0.393119
-0.382535
-0.370469
-0.356935
-0.341963
-0.325619
-0.307993
-0.289124
-0.268834
-0.246486
-0.220876
-0.190824
-0.157152
-0.124993
-0.102591
-0.0944544
-0.0957554
-0.0981716
-0.0603689
-0.0628905
-0.0689952
-0.0799418
-0.0962784
-0.117761
-0.143271
-0.17109
-0.199417
-0.226826
-0.252489
-0.276128
-0.297807
-0.317711
-0.336001
-0.352763
-0.368019
-0.381755
-0.393951
-0.404596
-0.413682
-0.421215
-0.427205
-0.431657
-0.434562
-0.435932
-0.435824
-0.434209
-0.431099
-0.426504
-0.420432
-0.41289
-0.403885
-0.39342
-0.3815
-0.368131
-0.353336
-0.337168
-0.319722
-0.301116
-0.281366
-0.260144
-0.236473
-0.208799
-0.176442
-0.142602
-0.115565
-0.103104
-0.103256
-0.106209
-0.0719332
-0.0745098
-0.080765
-0.0919577
-0.108503
-0.130076
-0.155491
-0.183006
-0.210863
-0.237724
-0.262854
-0.286045
-0.307386
-0.327052
-0.34518
-0.361829
-0.376999
-0.390667
-0.40281
-0.413413
-0.422472
-0.429988
-0.435969
-0.440425
-0.443342
-0.444721
-0.444637
-0.443048
-0.439971
-0.435416
-0.429394
-0.421916
-0.412994
-0.402638
-0.390856
-0.37766
-0.363066
-0.347115
-0.329891
-0.311532
-0.292173
-0.271751
-0.249644
-0.224375
-0.194322
-0.160616
-0.13031
-0.113445
-0.111915
-0.115329
-0.0825787
-0.0851164
-0.0914384
-0.102739
-0.119316
-0.1408
-0.165968
-0.193088
-0.220452
-0.246794
-0.271452
-0.294257
-0.315309
-0.334771
-0.352754
-0.369295
-0.384383
-0.397987
-0.41008
-0.420648
-0.429684
-0.437186
-0.443162
-0.447619
-0.450547
-0.451931
-0.451865
-0.450296
-0.447242
-0.442716
-0.43673
-0.4293
-0.420443
-0.410175
-0.398515
-0.385478
-0.371084
-0.355368
-0.3384
-0.320312
-0.301291
-0.281456
-0.260539
-0.237401
-0.210076
-0.177947
-0.146014
-0.125233
-0.121633
-0.125291
-0.0919881
-0.0943331
-0.100655
-0.111956
-0.128428
-0.149689
-0.174517
-0.201207
-0.228098
-0.253983
-0.278241
-0.300728
-0.321541
-0.340829
-0.358684
-0.375131
-0.390146
-0.403695
-0.41575
-0.426292
-0.435313
-0.44281
-0.448784
-0.453244
-0.45618
-0.457572
-0.457516
-0.455961
-0.45292
-0.448408
-0.442442
-0.435041
-0.426226
-0.416023
-0.404457
-0.391553
-0.377338
-0.361849
-0.345148
-0.327355
-0.308666
-0.289305
-0.269282
-0.24789
-0.223281
-0.193662
-0.161708
-0.13794
-0.132069
-0.135672
-0.0999127
-0.101929
-0.108144
-0.119368
-0.135631
-0.156575
-0.181011
-0.207274
-0.233742
-0.259245
-0.283183
-0.305418
-0.326042
-0.345188
-0.362939
-0.379307
-0.394265
-0.407775
-0.419805
-0.430336
-0.439356
-0.446857
-0.452838
-0.457305
-0.460251
-0.461654
-0.461603
-0.460055
-0.457016
-0.452505
-0.446541
-0.439145
-0.430346
-0.420176
-0.408669
-0.395861
-0.381788
-0.366494
-0.350044
-0.332547
-0.314194
-0.295254
-0.275926
-0.255903
-0.233729
-0.207054
-0.176409
-0.150816
-0.142678
-0.145932
-0.106186
-0.107787
-0.11375
-0.124822
-0.140808
-0.161375
-0.185393
-0.211246
-0.23735
-0.26255
-0.286248
-0.308296
-0.328775
-0.347812
-0.365482
-0.381793
-0.396715
-0.410206
-0.422233
-0.432771
-0.441805
-0.449325
-0.455325
-0.459806
-0.462764
-0.464179
-0.46413
-0.462587
-0.459541
-0.455016
-0.449034
-0.44162
-0.432806
-0.422632
-0.411143
-0.398384
-0.384404
-0.369257
-0.353014
-0.335785
-0.317755
-0.299205
-0.280444
-0.261482
-0.241346
-0.21765
-0.189247
-0.163015
-0.152823
-0.155501
-0.110741
-0.111868
-0.117432
-0.128258
-0.143906
-0.164043
-0.187619
-0.21308
-0.238877
-0.263854
-0.287397
-0.309334
-0.329728
-0.348697
-0.366315
-0.382594
-0.397502
-0.410998
-0.423043
-0.433608
-0.442674
-0.450226
-0.456254
-0.460753
-0.463719
-0.465138
-0.465086
-0.463547
-0.460484
-0.455932
-0.449914
-0.442455
-0.433595
-0.423381
-0.411867
-0.399107
-0.385163
-0.370099
-0.354
-0.336983
-0.319233
-0.301035
-0.282755
-0.264619
-0.246116
-0.22517
-0.199532
-0.173718
-0.161874
-0.163837
-0.113606
-0.114227
-0.119256
-0.129723
-0.144969
-0.16462
-0.187716
-0.212779
-0.238297
-0.263108
-0.286563
-0.308451
-0.328813
-0.347759
-0.365364
-0.381644
-0.396573
-0.410106
-0.422203
-0.432829
-0.44196
-0.449576
-0.455663
-0.460212
-0.463214
-0.464656
-0.46458
-0.46301
-0.459897
-0.455279
-0.449182
-0.441641
-0.4327
-0.422406
-0.410819
-0.398005
-0.384033
-0.368984
-0.352954
-0.336071
-0.31853
-0.300622
-0.282746
-0.265261
-0.248031
-0.229463
-0.206772
-0.182216
-0.169259
-0.17046
-0.114888
-0.115005
-0.119379
-0.129347
-0.144103
-0.1632
-0.185759
-0.210395
-0.235638
-0.260316
-0.283733
-0.305629
-0.326012
-0.344978
-0.362606
-0.37892
-0.393899
-0.407501
-0.419679
-0.430396
-0.439619
-0.447324
-0.453491
-0.458106
-0.461159
-0.46264
-0.462566
-0.460976
-0.457814
-0.453119
-0.446926
-0.439266
-0.430186
-0.419745
-0.40801
-0.395062
-0.380986
-0.365872
-0.349824
-0.332985
-0.315562
-0.29786
-0.2803
-0.263324
-0.247072
-0.230464
-0.210645
-0.187936
-0.174482
-0.17495
-0.114764
-0.114414
-0.118034
-0.127331
-0.141476
-0.159922
-0.181858
-0.206003
-0.230942
-0.255491
-0.278902
-0.300852
-0.321305
-0.340337
-0.35803
-0.374415
-0.38948
-0.403184
-0.41548
-0.426322
-0.435671
-0.443496
-0.449771
-0.454476
-0.457597
-0.459123
-0.459056
-0.457446
-0.454225
-0.449438
-0.443123
-0.435315
-0.426063
-0.415431
-0.403496
-0.390341
-0.376062
-0.360765
-0.344579
-0.327668
-0.310256
-0.292656
-0.27531
-0.258714
-0.243201
-0.228144
-0.210958
-0.190448
-0.177115
-0.176943
-0.113462
-0.112717
-0.115522
-0.123951
-0.137316
-0.154977
-0.176166
-0.199708
-0.224262
-0.248645
-0.272051
-0.294086
-0.314652
-0.3338
-0.351604
-0.368105
-0.383298
-0.397147
-0.409601
-0.42061
-0.430125
-0.438108
-0.444524
-0.449347
-0.452557
-0.454141
-0.454088
-0.452457
-0.449173
-0.444278
-0.437816
-0.429825
-0.420357
-0.40948
-0.397277
-0.383839
-0.369272
-0.353696
-0.337254
-0.320128
-0.302572
-0.284937
-0.267686
-0.251342
-0.23637
-0.222496
-0.207614
-0.189442
-0.17679
-0.176115
-0.111247
-0.110205
-0.11218
-0.119546
-0.131913
-0.148609
-0.168878
-0.191651
-0.215682
-0.239806
-0.263168
-0.28529
-0.306004
-0.325316
-0.343285
-0.359954
-0.375325
-0.389368
-0.40203
-0.413252
-0.42298
-0.431163
-0.43776
-0.442735
-0.446062
-0.447723
-0.447702
-0.446048
-0.442699
-0.437686
-0.431055
-0.422849
-0.41312
-0.401941
-0.389399
-0.375594
-0.360641
-0.344671
-0.327845
-0.31037
-0.292526
-0.274696
-0.257384
-0.241149
-0.226536
-0.213521
-0.200573
-0.184713
-0.173185
-0.172168
-0.108397
-0.107172
-0.108354
-0.114489
-0.125609
-0.141106
-0.160233
-0.182016
-0.205319
-0.229027
-0.252249
-0.274427
-0.295305
-0.314826
-0.33302
-0.34992
-0.365533
-0.379829
-0.392755
-0.404247
-0.41424
-0.422675
-0.429498
-0.434666
-0.438144
-0.439909
-0.439941
-0.438272
-0.434862
-0.429722
-0.422902
-0.414449
-0.404416
-0.392879
-0.379927
-0.365666
-0.35022
-0.333734
-0.316386
-0.298409
-0.280117
-0.261932
-0.244403
-0.228126
-0.213695
-0.20124
-0.189846
-0.17614
-0.166013
-0.164821
-0.105181
-0.103886
-0.104364
-0.109165
-0.118785
-0.132802
-0.150508
-0.17102
-0.193325
-0.216387
-0.239309
-0.261461
-0.28249
-0.302258
-0.320742
-0.337951
-0.353883
-0.368508
-0.38177
-0.393599
-0.403922
-0.412667
-0.419771
-0.42518
-0.428852
-0.430754
-0.430863
-0.429196
-0.42573
-0.420461
-0.413437
-0.404709
-0.394331
-0.382377
-0.368942
-0.354135
-0.338088
-0.320957
-0.302943
-0.284304
-0.265394
-0.246681
-0.228767
-0.212297
-0.197905
-0.185726
-0.175489
-0.163683
-0.155028
-0.153802
-0.101832
-0.100565
-0.100472
-0.103927
-0.111834
-0.124062
-0.140016
-0.158916
-0.179883
-0.201994
-0.224382
-0.246365
-0.267493
-0.287528
-0.306367
-0.323974
-0.340324
-0.355374
-0.369064
-0.381315
-0.392045
-0.401173
-0.408622
-0.414331
-0.418245
-0.420326
-0.420543
-0.418901
-0.415392
-0.409995
-0.402757
-0.393729
-0.382966
-0.370542
-0.356551
-0.341106
-0.324346
-0.306442
-0.287613
-0.268151
-0.248453
-0.229038
-0.210567
-0.193736
-0.179236
-0.167127
-0.157635
-0.147385
-0.140042
-0.138853
-0.0985389
-0.0973676
-0.0968663
-0.0990688
-0.105135
-0.115273
-0.129101
-0.145988
-0.165213
-0.185991
-0.207532
-0.229132
-0.250252
-0.270542
-0.289795
-0.307901
-0.324787
-0.340385
-0.354618
-0.367399
-0.378634
-0.388231
-0.396105
-0.402182
-0.406398
-0.408707
-0.409073
-0.407486
-0.403952
-0.398434
-0.390976
-0.381629
-0.370446
-0.3575
-0.342883
-0.326711
-0.309131
-0.290325
-0.270538
-0.250098
-0.229448
-0.209166
-0.189971
-0.172616
-0.157827
-0.14565
-0.136481
-0.127365
-0.120953
-0.119745
-0.0954298
-0.0943947
-0.0936545
-0.0947903
-0.0990082
-0.106815
-0.118124
-0.132545
-0.14956
-0.16856
-0.188865
-0.209791
-0.230734
-0.251222
-0.270927
-0.289632
-0.307188
-0.323481
-0.338403
-0.351849
-0.363712
-0.373887
-0.382281
-0.388808
-0.393398
-0.395994
-0.396557
-0.395064
-0.39153
-0.385906
-0.378228
-0.368548
-0.356916
-0.343401
-0.328094
-0.311114
-0.292613
-0.272791
-0.251916
-0.230357
-0.208607
-0.187307
-0.167238
-0.149199
-0.133944
-0.121528
-0.112291
-0.103811
-0.0977516
-0.0962408
-0.092583
-0.0917023
-0.0908768
-0.0911916
-0.0936803
-0.0990128
-0.107439
-0.11891
-0.133196
-0.149913
-0.168533
-0.188429
-0.208955
-0.229531
-0.249689
-0.269079
-0.287446
-0.304599
-0.320382
-0.334656
-0.347296
-0.358184
-0.367213
-0.374291
-0.379339
-0.382296
-0.383114
-0.381764
-0.378259
-0.37255
-0.364662
-0.354642
-0.342541
-0.328421
-0.312374
-0.294519
-0.275017
-0.254083
-0.232017
-0.209225
-0.186257
-0.163814
-0.142737
-0.123863
-0.107963
-0.0950514
-0.0854228
-0.076949
-0.0704884
-0.0680004
-0.0900307
-0.089313
-0.0885247
-0.0882773
-0.0892523
-0.0920925
-0.0973436
-0.105391
-0.116404
-0.130299
-0.146746
-0.165206
-0.185022
-0.205517
-0.226081
-0.24621
-0.265515
-0.283697
-0.300527
-0.315816
-0.329407
-0.341164
-0.350967
-0.358716
-0.364324
-0.367726
-0.368869
-0.36772
-0.364284
-0.358522
-0.350443
-0.34009
-0.327511
-0.31277
-0.295952
-0.277183
-0.256629
-0.234528
-0.211204
-0.18711
-0.162845
-0.13917
-0.11697
-0.0971116
-0.0803573
-0.0666412
-0.0563052
-0.0470482
-0.0393658
-0.0346231
-0.0877645
-0.0872223
-0.0865617
-0.085976
-0.0856857
-0.086121
-0.0880189
-0.0922382
-0.0994592
-0.109999
-0.123778
-0.140382
-0.159161
-0.179362
-0.200233
-0.22111
-0.241444
-0.260806
-0.278863
-0.295359
-0.31009
-0.32289
-0.333624
-0.342179
-0.348465
-0.352409
-0.353961
-0.353082
-0.349767
-0.343997
-0.335761
-0.325098
-0.312058
-0.296703
-0.27912
-0.259436
-0.23783
-0.214557
-0.189971
-0.164561
-0.138973
-0.114008
-0.090582
-0.0695662
-0.0516962
-0.0368273
-0.0254081
-0.0144382
-0.00502211
0.00394991
-0.0857274
-0.0853911
-0.0849279
-0.0841554
-0.082801
-0.0809682
-0.0794624
-0.0795862
-0.0826011
-0.0893197
-0.0999855
-0.11434
-0.131764
-0.151437
-0.172477
-0.194057
-0.21546
-0.236107
-0.255543
-0.273419
-0.289469
-0.303487
-0.315312
-0.324818
-0.331908
-0.336507
-0.33856
-0.338032
-0.334909
-0.329189
-0.320849
-0.309926
-0.296473
-0.280552
-0.262255
-0.241714
-0.21912
-0.194744
-0.168965
-0.142298
-0.115415
-0.0891326
-0.0643607
-0.0419442
-0.0225721
-0.00605789
0.00703312
0.0207814
0.0317002
0.0475297
-0.0837985
-0.083723
-0.0835154
-0.0826119
-0.0802796
-0.0762937
-0.0714472
-0.0674032
-0.0659978
-0.0685947
-0.0758229
-0.0876226
-0.103424
-0.122351
-0.143405
-0.1656
-0.188054
-0.210028
-0.230934
-0.250316
-0.267828
-0.283213
-0.296274
-0.306869
-0.314888
-0.320253
-0.32291
-0.322824
-0.319978
-0.314384
-0.30602
-0.294921
-0.281142
-0.264753
-0.245853
-0.224582
-0.201142
-0.175818
-0.149002
-0.121214
-0.0931201
-0.0655067
-0.0392278
-0.0150485
0.00643105
0.0254545
0.0414262
0.0594083
0.0717427
0.0982003
-0.0817833
-0.0820352
-0.0821164
-0.0810266
-0.0776607
-0.0715738
-0.0635404
-0.055487
-0.0497365
-0.0481819
-0.0518645
-0.0609596
-0.074973
-0.0929925
-0.113914
-0.13661
-0.160042
-0.183317
-0.205709
-0.226648
-0.245701
-0.262547
-0.27695
-0.288739
-0.297792
-0.304026
-0.307385
-0.307837
-0.305367
-0.29999
-0.291708
-0.28055
-0.266578
-0.249875
-0.230549
-0.20875
-0.18469
-0.158658
-0.131039
-0.102329
-0.0731406
-0.044174
-0.0161619
0.0102784
0.0347126
0.0575713
0.078463
0.103234
0.120232
0.163275
-0.0794682
-0.0800758
-0.0804428
-0.0790026
-0.0744036
-0.0661937
-0.0552152
-0.043556
-0.0338759
-0.0284916
-0.0288231
-0.0352925
-0.0475083
-0.0645483
-0.0852281
-0.108302
-0.132594
-0.157072
-0.18088
-0.203339
-0.223925
-0.24225
-0.25803
-0.271064
-0.281213
-0.288387
-0.292528
-0.293607
-0.291614
-0.286564
-0.278485
-0.267413
-0.253424
-0.236612
-0.217096
-0.195035
-0.170644
-0.1442
-0.116056
-0.0866436
-0.0564681
-0.026076
0.00399826
0.033368
0.0618523
0.0902011
0.11842
0.153601
0.183378
0.248064
-0.0769572
-0.077806
-0.0783039
-0.0762584
-0.070209
-0.0597813
-0.0461141
-0.0314582
-0.0185821
-0.010047
-0.00755841
-0.0117533
-0.0223536
-0.0384593
-0.0588441
-0.0821787
-0.10718
-0.132702
-0.157777
-0.181625
-0.20364
-0.223369
-0.240478
-0.254735
-0.265981
-0.274115
-0.27908
-0.28085
-0.279424
-0.27482
-0.267076
-0.256242
-0.242415
-0.225713
-0.206261
-0.184219
-0.159789
-0.133217
-0.104799
-0.0748612
-0.0437489
-0.0117782
0.0208227
0.0540473
0.0881399
0.124292
0.162817
0.212473
0.259974
0.338542
-0.0755357
-0.0762337
-0.0763617
-0.0731373
-0.0652573
-0.0526053
-0.0365263
-0.0195302
-0.00439438
0.00637986
0.0108944
0.00836796
-0.00099861
-0.0163439
-0.0364439
-0.0599318
-0.0854587
-0.111798
-0.1379
-0.162906
-0.186139
-0.207089
-0.225378
-0.240742
-0.253004
-0.262052
-0.267826
-0.270302
-0.269488
-0.265417
-0.258144
-0.247712
-0.234208
-0.217777
-0.198569
-0.176741
-0.152469
-0.125953
-0.0974061
-0.0670286
-0.0349611
-0.00121087
0.0344535
0.0726988
0.114692
0.162764
0.217981
0.289105
0.349471
0.424441
-0.0797091
-0.0790097
-0.0774008
-0.0717911
-0.061244
-0.0460053
-0.0276797
-0.00886881
0.00764717
0.0196565
0.0253941
0.0238591
0.015239
0.000372489
-0.0195407
-0.0431321
-0.0690249
-0.095949
-0.122802
-0.148672
-0.172832
-0.194727
-0.213946
-0.230199
-0.243292
-0.253102
-0.259566
-0.262663
-0.262405
-0.258833
-0.252009
-0.242023
-0.228952
-0.212878
-0.193958
-0.172371
-0.148279
-0.121836
-0.0931744
-0.0623557
-0.0292958
0.00637019
0.0454911
0.0897811
0.142159
0.207848
0.291641
0.403561
0.495823
0.603404
-0.103141
-0.0953212
-0.0868753
-0.0760868
-0.0617233
-0.0433916
-0.0227363
-0.00233605
0.0153613
0.0281448
0.0343247
0.0332139
0.0250038
0.0104845
-0.00918996
-0.0326853
-0.0586405
-0.0857812
-0.112986
-0.139314
-0.164007
-0.186479
-0.206293
-0.223137
-0.2368
-0.247149
-0.254116
-0.257675
-0.257841
-0.254655
-0.248184
-0.238512
-0.225738
-0.209972
-0.191338
-0.169976
-0.146035
-0.119641
-0.0908555
-0.0596171
-0.0256236
0.0118688
0.054375
0.104815
0.168319
0.254379
0.375671
0.555717
0.767682
1.10784
-0.189976
-0.112221
-0.0806335
-0.0714047
-0.0581266
-0.0387526
-0.0170546
0.00395307
0.0217609
0.0341936
0.0398458
0.0382343
0.0296314
0.0148564
-0.00494391
-0.0284716
-0.0544116
-0.0815284
-0.108727
-0.135082
-0.15984
-0.182413
-0.202358
-0.219357
-0.233191
-0.243722
-0.250876
-0.254626
-0.254982
-0.251986
-0.245703
-0.236216
-0.223625
-0.208039
-0.18958
-0.168378
-0.144569
-0.118246
-0.0894187
-0.0579255
-0.0233005
0.0154803
0.0604091
0.115228
0.186496
0.286558
0.435304
0.680366
1.07937
1.82853
)
;

boundaryField
{
    movingWall
    {
        type            zeroGradient;
    }
    fixedWalls
    {
        type            zeroGradient;
    }
    frontAndBack
    {
        type            empty;
    }
}


// ************************************************************************* //
