/*--------------------------------*- C++ -*----------------------------------*\
  =========                 |
  \\      /  F ield         | OpenFOAM: The Open Source CFD Toolbox
   \\    /   O peration     | Website:  https://openfoam.org
    \\  /    A nd           | Version:  7
     \\/     M anipulation  |
\*---------------------------------------------------------------------------*/
FoamFile
{
    version     2.0;
    format      ascii;
    class       volVectorField;
    location    "1350";
    object      U;
}
// * * * * * * * * * * * * * * * * * * * * * * * * * * * * * * * * * * * * * //

dimensions      [0 1 -1 0 0 0 0];

internalField   nonuniform List<vector> 
2500
(
(0.000207817 -0.000200888 0)
(0.00186736 -0.000571205 0)
(0.0044744 -0.000697846 0)
(0.00716331 -0.000600107 0)
(0.00922934 -0.000418995 0)
(0.0104506 -0.00026433 0)
(0.0109303 -0.000187999 0)
(0.0108812 -0.000185874 0)
(0.0104507 -0.000219864 0)
(0.0096342 -0.00024543 0)
(0.00828259 -0.000228684 0)
(0.00616351 -0.000150773 0)
(0.00301967 -2.65256e-06 0)
(-0.00139265 0.000221057 0)
(-0.00727808 0.000523496 0)
(-0.0147692 0.000908204 0)
(-0.0238883 0.00137519 0)
(-0.0345055 0.00191282 0)
(-0.0463029 0.00248787 0)
(-0.0587545 0.00303806 0)
(-0.0711318 0.00347364 0)
(-0.0825413 0.00368997 0)
(-0.0919939 0.00358863 0)
(-0.0985068 0.00310447 0)
(-0.101215 0.00223176 0)
(-0.0994445 0.00102854 0)
(-0.0929274 -0.000374415 0)
(-0.0817368 -0.00181146 0)
(-0.0663403 -0.00310904 0)
(-0.0475948 -0.00410029 0)
(-0.0267195 -0.0046402 0)
(-0.00519645 -0.00460609 0)
(0.0154487 -0.00393592 0)
(0.0337458 -0.00278466 0)
(0.048388 -0.00137167 0)
(0.0584194 0.000125333 0)
(0.0634602 0.00149657 0)
(0.0637228 0.00253397 0)
(0.0600137 0.00311167 0)
(0.0534982 0.00322472 0)
(0.0454083 0.00298639 0)
(0.0368472 0.00254958 0)
(0.0286519 0.00204871 0)
(0.0213423 0.00157437 0)
(0.0151481 0.00117426 0)
(0.0100803 0.000863449 0)
(0.00602929 0.000631267 0)
(0.0029013 0.000436047 0)
(0.000795408 0.000192811 0)
(-8.20118e-05 -8.7412e-05 0)
(0.000566219 -0.00181733 0)
(0.00437677 -0.00431478 0)
(0.00958326 -0.00511656 0)
(0.0146047 -0.00444061 0)
(0.018162 -0.00299823 0)
(0.0197685 -0.00145766 0)
(0.0194628 -0.000192306 0)
(0.017456 0.000765795 0)
(0.0138334 0.00162545 0)
(0.00840593 0.0026654 0)
(0.000736861 0.00410292 0)
(-0.00973008 0.00604397 0)
(-0.023524 0.00849271 0)
(-0.0410072 0.0113821 0)
(-0.0622601 0.0145737 0)
(-0.0869752 0.0178418 0)
(-0.114395 0.0208661 0)
(-0.143325 0.0232541 0)
(-0.172242 0.0245974 0)
(-0.199466 0.0245386 0)
(-0.223342 0.0228307 0)
(-0.242389 0.0193739 0)
(-0.255407 0.0142328 0)
(-0.26154 0.00763972 0)
(-0.260313 -1.54568e-05 0)
(-0.251661 -0.00821661 0)
(-0.235776 -0.0163931 0)
(-0.213105 -0.0239914 0)
(-0.184417 -0.0304484 0)
(-0.1508 -0.03523 0)
(-0.113664 -0.0378739 0)
(-0.0747056 -0.0380369 0)
(-0.0358355 -0.0355744 0)
(0.00101172 -0.0306691 0)
(0.0339913 -0.0238197 0)
(0.0614264 -0.0157522 0)
(0.0819997 -0.00728772 0)
(0.0949901 0.00069116 0)
(0.100263 0.00734113 0)
(0.0984314 0.01208 0)
(0.0909517 0.0147103 0)
(0.0796096 0.0154337 0)
(0.0662312 0.014715 0)
(0.0524143 0.0131076 0)
(0.0393372 0.0111173 0)
(0.0276942 0.00911048 0)
(0.0177737 0.00724897 0)
(0.00968245 0.00543481 0)
(0.00372633 0.00334334 0)
(0.000329312 0.000918531 0)
(0.000785767 -0.0044954 0)
(0.00568918 -0.00969413 0)
(0.0117186 -0.0109168 0)
(0.0169072 -0.00900544 0)
(0.0197643 -0.00542362 0)
(0.0197129 -0.0014693 0)
(0.0166708 0.00215314 0)
(0.0106357 0.00542372 0)
(0.0013825 0.00878157 0)
(-0.0116207 0.0127931 0)
(-0.0290869 0.0178443 0)
(-0.0516436 0.0240123 0)
(-0.0795965 0.0310857 0)
(-0.112716 0.0386008 0)
(-0.150127 0.0458774 0)
(-0.190356 0.0520966 0)
(-0.231514 0.056435 0)
(-0.271565 0.0582062 0)
(-0.308584 0.0569639 0)
(-0.340947 0.0525425 0)
(-0.367417 0.0450412 0)
(-0.387148 0.0347749 0)
(-0.399625 0.0222161 0)
(-0.40459 0.00794623 0)
(-0.401971 -0.00738406 0)
(-0.391739 -0.0230938 0)
(-0.373931 -0.038473 0)
(-0.348819 -0.0527316 0)
(-0.31689 -0.0650326 0)
(-0.27891 -0.0745387 0)
(-0.235967 -0.0804781 0)
(-0.189498 -0.08224 0)
(-0.141266 -0.0794923 0)
(-0.0932748 -0.0722915 0)
(-0.0476339 -0.0611864 0)
(-0.00633879 -0.047182 0)
(0.0288871 -0.0315694 0)
(0.0566858 -0.0157962 0)
(0.0763658 -0.00115229 0)
(0.0876538 0.0111657 0)
(0.0908123 0.02025 0)
(0.087095 0.0257371 0)
(0.0782072 0.0278593 0)
(0.0660387 0.027306 0)
(0.0523898 0.024976 0)
(0.0387215 0.0217247 0)
(0.0260341 0.0181224 0)
(0.0149681 0.0142395 0)
(0.00625656 0.00958331 0)
(0.000705228 0.00358683 0)
(0.000917709 -0.00772709 0)
(0.00606874 -0.015592 0)
(0.0115467 -0.0165376 0)
(0.0151642 -0.0124513 0)
(0.0154181 -0.00573302 0)
(0.0117496 0.00170039 0)
(0.00393426 0.00894346 0)
(-0.00837673 0.0161047 0)
(-0.0258486 0.0239469 0)
(-0.0492967 0.0332211 0)
(-0.0793585 0.0442072 0)
(-0.116131 0.0565645 0)
(-0.158948 0.0694169 0)
(-0.206355 0.0815417 0)
(-0.256313 0.0916101 0)
(-0.306538 0.0984367 0)
(-0.354859 0.101173 0)
(-0.399463 0.0993974 0)
(-0.43902 0.0930961 0)
(-0.472655 0.0825724 0)
(-0.499841 0.0683251 0)
(-0.520276 0.0509495 0)
(-0.533769 0.0310779 0)
(-0.540161 0.00935043 0)
(-0.539289 -0.013576 0)
(-0.530961 -0.0369757 0)
(-0.515055 -0.0599964 0)
(-0.491551 -0.0816677 0)
(-0.460549 -0.100928 0)
(-0.422363 -0.116642 0)
(-0.377619 -0.127669 0)
(-0.327336 -0.133004 0)
(-0.27298 -0.131955 0)
(-0.216487 -0.124322 0)
(-0.160172 -0.110535 0)
(-0.106519 -0.0917047 0)
(-0.057876 -0.0695312 0)
(-0.0161114 -0.0460183 0)
(0.0175796 -0.0230798 0)
(0.0426073 -0.00245858 0)
(0.0589093 0.0146088 0)
(0.0667456 0.0271986 0)
(0.0672277 0.0349361 0)
(0.061911 0.0381629 0)
(0.0525851 0.0377832 0)
(0.0410417 0.0349324 0)
(0.0288315 0.030568 0)
(0.0171898 0.0250319 0)
(0.00742135 0.0177403 0)
(0.000862115 0.00736605 0)
(0.000999777 -0.0110183 0)
(0.00561111 -0.0208275 0)
(0.00922922 -0.0203481 0)
(0.00967809 -0.0129014 0)
(0.00561954 -0.00193502 0)
(-0.00346519 0.010128 0)
(-0.0180407 0.022387 0)
(-0.0388624 0.0352857 0)
(-0.0668644 0.0497638 0)
(-0.102698 0.0663472 0)
(-0.146263 0.0846632 0)
(-0.196483 0.103481 0)
(-0.251419 0.121071 0)
(-0.308623 0.135637 0)
(-0.365591 0.145695 0)
(-0.420143 0.150293 0)
(-0.470634 0.149065 0)
(-0.515978 0.142133 0)
(-0.555549 0.129957 0)
(-0.589021 0.113155 0)
(-0.616231 0.0923916 0)
(-0.637095 0.0683316 0)
(-0.651559 0.0416209 0)
(-0.659537 0.0128795 0)
(-0.660916 -0.0172516 0)
(-0.655569 -0.048034 0)
(-0.643295 -0.0785974 0)
(-0.623808 -0.107941 0)
(-0.596807 -0.134896 0)
(-0.562067 -0.158098 0)
(-0.51955 -0.176061 0)
(-0.469541 -0.187327 0)
(-0.412844 -0.190649 0)
(-0.350943 -0.18525 0)
(-0.286048 -0.171105 0)
(-0.22099 -0.14915 0)
(-0.158934 -0.121277 0)
(-0.102885 -0.0900899 0)
(-0.0551302 -0.0584398 0)
(-0.0168582 -0.0288454 0)
(0.011806 -0.00308224 0)
(0.0312419 0.017648 0)
(0.0420032 0.0326753 0)
(0.0452938 0.0418456 0)
(0.0426335 0.0456974 0)
(0.0357485 0.045299 0)
(0.0264018 0.0417599 0)
(0.0162518 0.0356004 0)
(0.00711024 0.0261579 0)
(0.000796534 0.0113833 0)
(0.000995765 -0.0139233 0)
(0.00416202 -0.0242946 0)
(0.00458122 -0.0208782 0)
(0.000395891 -0.00872576 0)
(-0.00946702 0.0076609 0)
(-0.0255699 0.0255999 0)
(-0.0486559 0.0444897 0)
(-0.0797053 0.0650034 0)
(-0.119432 0.0877977 0)
(-0.167654 0.112559 0)
(-0.223025 0.137833 0)
(-0.283243 0.161466 0)
(-0.345541 0.181237 0)
(-0.407226 0.195369 0)
(-0.466076 0.202793 0)
(-0.520509 0.20316 0)
(-0.569547 0.196694 0)
(-0.612685 0.183977 0)
(-0.649731 0.165755 0)
(-0.68068 0.142801 0)
(-0.705655 0.115869 0)
(-0.724866 0.0856763 0)
(-0.738537 0.0528674 0)
(-0.746839 0.0180297 0)
(-0.749888 -0.0182359 0)
(-0.747707 -0.0552918 0)
(-0.740086 -0.0924421 0)
(-0.726571 -0.128827 0)
(-0.706556 -0.163328 0)
(-0.679291 -0.19454 0)
(-0.643971 -0.220805 0)
(-0.599937 -0.240267 0)
(-0.546953 -0.251033 0)
(-0.485478 -0.251489 0)
(-0.416919 -0.24072 0)
(-0.343807 -0.218888 0)
(-0.269719 -0.187503 0)
(-0.198848 -0.149416 0)
(-0.135243 -0.108398 0)
(-0.0819061 -0.0683307 0)
(-0.0401273 -0.0323313 0)
(-0.00953181 -0.00226375 0)
(0.0110477 0.0211399 0)
(0.0228021 0.0375986 0)
(0.0271598 0.0473281 0)
(0.0257843 0.0511104 0)
(0.0204661 0.0499396 0)
(0.0130787 0.0443206 0)
(0.00574957 0.0334782 0)
(0.000591055 0.0148945 0)
(0.00083992 -0.0158648 0)
(0.00148421 -0.0247702 0)
(-0.00259527 -0.0166944 0)
(-0.0126858 0.00145066 0)
(-0.029572 0.0244058 0)
(-0.0539283 0.0495739 0)
(-0.0866542 0.0766464 0)
(-0.128509 0.106087 0)
(-0.179368 0.137648 0)
(-0.237802 0.169783 0)
(-0.301284 0.200012 0)
(-0.366783 0.225701 0)
(-0.431384 0.244735 0)
(-0.492723 0.255853 0)
(-0.549143 0.258662 0)
(-0.599648 0.253441 0)
(-0.643759 0.240896 0)
(-0.681382 0.221941 0)
(-0.712694 0.197546 0)
(-0.738076 0.168652 0)
(-0.758064 0.136137 0)
(-0.773258 0.100764 0)
(-0.784211 0.0631398 0)
(-0.791403 0.0237868 0)
(-0.795186 -0.0168224 0)
(-0.795704 -0.0582895 0)
(-0.792838 -0.100205 0)
(-0.78615 -0.141964 0)
(-0.774916 -0.182703 0)
(-0.758046 -0.221247 0)
(-0.734162 -0.256015 0)
(-0.701769 -0.284966 0)
(-0.659469 -0.305722 0)
(-0.606286 -0.315851 0)
(-0.542137 -0.313255 0)
(-0.468294 -0.296706 0)
(-0.387667 -0.26645 0)
(-0.304744 -0.224637 0)
(-0.225055 -0.175289 0)
(-0.154074 -0.123636 0)
(-0.0958014 -0.0748691 0)
(-0.0516975 -0.0327835 0)
(-0.0207476 0.000867508 0)
(-0.000743609 0.0259475 0)
(0.0103099 0.0427887 0)
(0.0143154 0.052013 0)
(0.0132088 0.0544174 0)
(0.0090139 0.0503549 0)
(0.00400111 0.038928 0)
(0.000362278 0.0174928 0)
(0.000465142 -0.0160979 0)
(-0.00257287 -0.0209743 0)
(-0.012284 -0.00661847 0)
(-0.0292324 0.0186582 0)
(-0.0539488 0.0492717 0)
(-0.0871845 0.0828776 0)
(-0.129664 0.119123 0)
(-0.181395 0.157663 0)
(-0.241054 0.196944 0)
(-0.306055 0.234256 0)
(-0.37316 0.26655 0)
(-0.439201 0.291289 0)
(-0.501575 0.306907 0)
(-0.558436 0.312871 0)
(-0.608672 0.309469 0)
(-0.651774 0.297533 0)
(-0.687718 0.278193 0)
(-0.716863 0.252693 0)
(-0.739857 0.222259 0)
(-0.757545 0.18802 0)
(-0.770862 0.150942 0)
(-0.780701 0.111754 0)
(-0.787848 0.0709841 0)
(-0.792965 0.0290209 0)
(-0.796516 -0.0138904 0)
(-0.798734 -0.0576151 0)
(-0.799663 -0.10201 0)
(-0.799025 -0.146807 0)
(-0.796188 -0.191561 0)
(-0.790083 -0.235512 0)
(-0.779217 -0.277401 0)
(-0.761663 -0.315381 0)
(-0.735144 -0.347023 0)
(-0.697347 -0.369384 0)
(-0.646443 -0.379283 0)
(-0.581693 -0.373879 0)
(-0.504105 -0.351467 0)
(-0.416954 -0.312304 0)
(-0.325819 -0.259215 0)
(-0.237862 -0.19762 0)
(-0.160274 -0.134603 0)
(-0.0982363 -0.0770071 0)
(-0.053312 -0.0293774 0)
(-0.023577 0.00686807 0)
(-0.00555866 0.0324478 0)
(0.00361608 0.0482928 0)
(0.00645952 0.0552478 0)
(0.00529014 0.0535878 0)
(0.00248791 0.0423769 0)
(0.000209279 0.0191573 0)
(-0.000171768 -0.0137883 0)
(-0.00796471 -0.0118329 0)
(-0.0241199 0.0101995 0)
(-0.0484355 0.0435027 0)
(-0.0812295 0.0826378 0)
(-0.123138 0.125387 0)
(-0.1743 0.170821 0)
(-0.233642 0.217343 0)
(-0.298699 0.262102 0)
(-0.366138 0.301645 0)
(-0.432536 0.332913 0)
(-0.494988 0.353889 0)
(-0.551377 0.363772 0)
(-0.600404 0.362782 0)
(-0.641486 0.351864 0)
(-0.674655 0.332391 0)
(-0.700441 0.305942 0)
(-0.719749 0.274101 0)
(-0.733705 0.238321 0)
(-0.743511 0.199824 0)
(-0.750303 0.159532 0)
(-0.755059 0.11806 0)
(-0.758584 0.0757899 0)
(-0.761496 0.0329078 0)
(-0.76422 -0.0105652 0)
(-0.767057 -0.0546732 0)
(-0.770154 -0.0994831 0)
(-0.773431 -0.145052 0)
(-0.776546 -0.191327 0)
(-0.778821 -0.237994 0)
(-0.779104 -0.284331 0)
(-0.775599 -0.329075 0)
(-0.765833 -0.370223 0)
(-0.746796 -0.404882 0)
(-0.715253 -0.429358 0)
(-0.668344 -0.439561 0)
(-0.604478 -0.431711 0)
(-0.524341 -0.40338 0)
(-0.431629 -0.354715 0)
(-0.333159 -0.289375 0)
(-0.237974 -0.214573 0)
(-0.155219 -0.139717 0)
(-0.0912463 -0.0736255 0)
(-0.0474007 -0.0215354 0)
(-0.0204279 0.0158038 0)
(-0.00547117 0.0401138 0)
(0.00120563 0.0527788 0)
(0.00267448 0.0543874 0)
(0.0016062 0.0442022 0)
(0.000183953 0.0201684 0)
(-0.00107246 -0.00816785 0)
(-0.0144152 0.00340318 0)
(-0.037366 0.0341389 0)
(-0.0690409 0.0760413 0)
(-0.109496 0.124128 0)
(-0.158985 0.175941 0)
(-0.216766 0.229507 0)
(-0.280679 0.281867 0)
(-0.347453 0.329208 0)
(-0.413474 0.367864 0)
(-0.475514 0.395202 0)
(-0.531128 0.409974 0)
(-0.578769 0.412216 0)
(-0.617738 0.402926 0)
(-0.648091 0.383727 0)
(-0.670515 0.356564 0)
(-0.686156 0.323438 0)
(-0.696408 0.286186 0)
(-0.702706 0.246328 0)
(-0.706355 0.204996 0)
(-0.708426 0.162928 0)
(-0.709744 0.120536 0)
(-0.710906 0.0779962 0)
(-0.712306 0.0352997 0)
(-0.71424 -0.00766611 0)
(-0.716977 -0.0510417 0)
(-0.720658 -0.0950178 0)
(-0.725376 -0.139815 0)
(-0.731147 -0.185602 0)
(-0.737804 -0.232435 0)
(-0.744796 -0.280181 0)
(-0.750993 -0.328318 0)
(-0.754501 -0.375631 0)
(-0.7525 -0.419931 0)
(-0.741249 -0.457874 0)
(-0.716467 -0.484955 0)
(-0.674168 -0.495901 0)
(-0.611831 -0.485656 0)
(-0.529734 -0.450888 0)
(-0.432067 -0.391673 0)
(-0.327158 -0.3128 0)
(-0.226232 -0.22385 0)
(-0.14048 -0.137182 0)
(-0.0771168 -0.0638217 0)
(-0.0365911 -0.00931051 0)
(-0.013781 0.0268043 0)
(-0.00262621 0.0471488 0)
(0.0013037 0.0532509 0)
(0.00144706 0.0450198 0)
(0.000288223 0.0209462 0)
(-0.00217962 0.00131054 0)
(-0.0214262 0.0250219 0)
(-0.0510207 0.0650617 0)
(-0.0894992 0.115743 0)
(-0.136548 0.172611 0)
(-0.191811 0.232557 0)
(-0.253589 0.292329 0)
(-0.318878 0.347803 0)
(-0.384008 0.394672 0)
(-0.44546 0.429519 0)
(-0.50043 0.450435 0)
(-0.547059 0.457075 0)
(-0.584466 0.450378 0)
(-0.612677 0.432171 0)
(-0.632491 0.404779 0)
(-0.645271 0.370664 0)
(-0.652667 0.332107 0)
(-0.656337 0.290978 0)
(-0.657735 0.248639 0)
(-0.657986 0.205945 0)
(-0.657875 0.16334 0)
(-0.6579 0.120977 0)
(-0.658336 0.0788313 0)
(-0.659316 0.0367687 0)
(-0.660956 -0.00537338 0)
(-0.663406 -0.0477643 0)
(-0.666756 -0.0905929 0)
(-0.67119 -0.134058 0)
(-0.67694 -0.178379 0)
(-0.684207 -0.223814 0)
(-0.693043 -0.270613 0)
(-0.703182 -0.318868 0)
(-0.713759 -0.368273 0)
(-0.722928 -0.417792 0)
(-0.727577 -0.465191 0)
(-0.723304 -0.506614 0)
(-0.704785 -0.536507 0)
(-0.666756 -0.548151 0)
(-0.605621 -0.534949 0)
(-0.521333 -0.492475 0)
(-0.418857 -0.420879 0)
(-0.308417 -0.326723 0)
(-0.203739 -0.222891 0)
(-0.117977 -0.125403 0)
(-0.0584562 -0.047378 0)
(-0.0236444 0.00624167 0)
(-0.00618933 0.0377603 0)
(0.00067953 0.0503905 0)
(0.00181004 0.0453557 0)
(0.000485819 0.0218738 0)
(-0.00335796 0.0148804 0)
(-0.0283507 0.052822 0)
(-0.0639643 0.102343 0)
(-0.108202 0.161522 0)
(-0.16027 0.226364 0)
(-0.219096 0.292809 0)
(-0.282157 0.356348 0)
(-0.345939 0.412056 0)
(-0.406739 0.455599 0)
(-0.461389 0.484157 0)
(-0.507662 0.496743 0)
(-0.544404 0.494027 0)
(-0.571515 0.477925 0)
(-0.589828 0.451112 0)
(-0.600862 0.416541 0)
(-0.606496 0.377003 0)
(-0.608609 0.334793 0)
(-0.608806 0.291552 0)
(-0.608273 0.24827 0)
(-0.607757 0.205413 0)
(-0.607644 0.163092 0)
(-0.60808 0.121223 0)
(-0.609057 0.0796426 0)
(-0.610511 0.0381722 0)
(-0.612402 -0.0033465 0)
(-0.614772 -0.0450452 0)
(-0.61767 -0.08703 0)
(-0.62125 -0.129402 0)
(-0.625761 -0.172315 0)
(-0.631531 -0.216013 0)
(-0.638959 -0.260832 0)
(-0.648406 -0.307176 0)
(-0.659964 -0.355427 0)
(-0.673091 -0.405654 0)
(-0.686146 -0.457084 0)
(-0.695901 -0.507433 0)
(-0.697284 -0.552289 0)
(-0.683794 -0.584857 0)
(-0.648805 -0.596567 0)
(-0.58768 -0.57889 0)
(-0.500243 -0.526283 0)
(-0.392703 -0.439518 0)
(-0.277803 -0.328021 0)
(-0.172116 -0.209266 0)
(-0.0902944 -0.103565 0)
(-0.0383217 -0.0252718 0)
(-0.0113372 0.0229084 0)
(-0.000154585 0.0453668 0)
(0.00229712 0.0453541 0)
(0.000720639 0.0231563 0)
(-0.00444354 0.0323897 0)
(-0.0345362 0.0861389 0)
(-0.0751399 0.144926 0)
(-0.123721 0.211874 0)
(-0.178944 0.28335 0)
(-0.239057 0.354222 0)
(-0.300952 0.418932 0)
(-0.360939 0.472175 0)
(-0.415554 0.509978 0)
(-0.462157 0.530378 0)
(-0.499221 0.533466 0)
(-0.526392 0.521022 0)
(-0.544406 0.495962 0)
(-0.554846 0.461727 0)
(-0.559759 0.421683 0)
(-0.561233 0.378651 0)
(-0.561042 0.334641 0)
(-0.560451 0.290835 0)
(-0.5602 0.247742 0)
(-0.560595 0.205426 0)
(-0.561667 0.163727 0)
(-0.563303 0.122412 0)
(-0.565345 0.0812691 0)
(-0.567638 0.0401319 0)
(-0.570079 -0.00111475 0)
(-0.572665 -0.0425349 0)
(-0.57542 -0.084155 0)
(-0.578406 -0.12599 0)
(-0.581779 -0.168089 0)
(-0.585804 -0.210558 0)
(-0.590887 -0.253615 0)
(-0.59757 -0.29766 0)
(-0.606462 -0.343301 0)
(-0.61804 -0.39124 0)
(-0.632214 -0.441953 0)
(-0.647637 -0.495035 0)
(-0.660967 -0.548224 0)
(-0.666451 -0.596368 0)
(-0.656343 -0.631005 0)
(-0.622539 -0.641236 0)
(-0.559448 -0.616315 0)
(-0.467278 -0.5498 0)
(-0.354331 -0.444126 0)
(-0.236683 -0.313371 0)
(-0.133896 -0.181259 0)
(-0.0609073 -0.0724223 0)
(-0.0200566 -0.000200324 0)
(-0.00226858 0.0369431 0)
(0.00246986 0.0446299 0)
(0.000940037 0.0247543 0)
(-0.00528802 0.0532765 0)
(-0.0394217 0.123914 0)
(-0.0836894 0.191437 0)
(-0.13499 0.265064 0)
(-0.191451 0.341492 0)
(-0.250771 0.414568 0)
(-0.309533 0.477997 0)
(-0.364143 0.526484 0)
(-0.41157 0.556728 0)
(-0.449823 0.567824 0)
(-0.478154 0.56106 0)
(-0.497037 0.539364 0)
(-0.507971 0.506575 0)
(-0.513081 0.466677 0)
(-0.514628 0.423131 0)
(-0.51457 0.378456 0)
(-0.514295 0.334136 0)
(-0.514573 0.290785 0)
(-0.515675 0.248442 0)
(-0.517549 0.206867 0)
(-0.520004 0.165747 0)
(-0.522823 0.124814 0)
(-0.525823 0.0838781 0)
(-0.528865 0.0428237 0)
(-0.53186 0.00159111 0)
(-0.534811 -0.0398324 0)
(-0.53774 -0.0814319 0)
(-0.540636 -0.123181 0)
(-0.543554 -0.165047 0)
(-0.546612 -0.207013 0)
(-0.550032 -0.249135 0)
(-0.554205 -0.291613 0)
(-0.559753 -0.33489 0)
(-0.567516 -0.379735 0)
(-0.578349 -0.427209 0)
(-0.592609 -0.4783 0)
(-0.6093 -0.533026 0)
(-0.624993 -0.589033 0)
(-0.63311 -0.640133 0)
(-0.62442 -0.675653 0)
(-0.589316 -0.681725 0)
(-0.521649 -0.645153 0)
(-0.422901 -0.559372 0)
(-0.304684 -0.430475 0)
(-0.187302 -0.279818 0)
(-0.0928421 -0.138948 0)
(-0.0339622 -0.0351841 0)
(-0.00650304 0.0231738 0)
(0.00201256 0.042313 0)
(0.00111652 0.0264176 0)
(-0.00577009 0.0766353 0)
(-0.0425951 0.164815 0)
(-0.0890393 0.240331 0)
(-0.141394 0.31932 0)
(-0.19731 0.398892 0)
(-0.254121 0.472049 0)
(-0.308353 0.532096 0)
(-0.356708 0.574085 0)
(-0.396713 0.595627 0)
(-0.427095 0.597022 0)
(-0.447892 0.580816 0)
(-0.460329 0.551024 0)
(-0.466466 0.512205 0)
(-0.46867 0.468566 0)
(-0.469086 0.423314 0)
(-0.469273 0.378406 0)
(-0.470097 0.334679 0)
(-0.471839 0.292205 0)
(-0.474409 0.250674 0)
(-0.477556 0.209689 0)
(-0.48102 0.168915 0)
(-0.484604 0.128128 0)
(-0.488184 0.0872071 0)
(-0.491682 0.0460929 0)
(-0.495064 0.00476888 0)
(-0.498361 -0.0367559 0)
(-0.5016 -0.0784575 0)
(-0.504749 -0.120307 0)
(-0.507802 -0.16225 0)
(-0.510755 -0.204221 0)
(-0.513644 -0.24616 0)
(-0.516608 -0.288062 0)
(-0.519989 -0.330076 0)
(-0.524435 -0.372665 0)
(-0.530952 -0.416783 0)
(-0.540762 -0.463881 0)
(-0.554714 -0.515499 0)
(-0.572129 -0.5721 0)
(-0.589314 -0.631076 0)
(-0.598591 -0.684612 0)
(-0.589015 -0.718916 0)
(-0.549555 -0.716433 0)
(-0.474252 -0.66174 0)
(-0.367332 -0.549918 0)
(-0.24533 -0.394018 0)
(-0.133346 -0.22607 0)
(-0.0540407 -0.0858283 0)
(-0.0133498 0.00164087 0)
(0.000773398 0.0372229 0)
(0.00125394 0.0277873 0)
(-0.00581418 0.101333 0)
(-0.0438237 0.207361 0)
(-0.0909257 0.290032 0)
(-0.142764 0.372992 0)
(-0.196613 0.453968 0)
(-0.249636 0.525365 0)
(-0.298499 0.58041 0)
(-0.340337 0.614768 0)
(-0.373298 0.62714 0)
(-0.396826 0.619116 0)
(-0.411671 0.594468 0)
(-0.419631 0.558134 0)
(-0.42305 0.515095 0)
(-0.424231 0.469431 0)
(-0.424948 0.42381 0)
(-0.426238 0.379489 0)
(-0.428465 0.33668 0)
(-0.431541 0.295046 0)
(-0.435185 0.254096 0)
(-0.439101 0.213412 0)
(-0.443073 0.172728 0)
(-0.446984 0.131906 0)
(-0.450793 0.0908954 0)
(-0.454487 0.0496823 0)
(-0.458073 0.0082698 0)
(-0.461611 -0.0333319 0)
(-0.46514 -0.075108 0)
(-0.468635 -0.117049 0)
(-0.472068 -0.159121 0)
(-0.475388 -0.201266 0)
(-0.478534 -0.243392 0)
(-0.481458 -0.285392 0)
(-0.484202 -0.327193 0)
(-0.487019 -0.368888 0)
(-0.490555 -0.410953 0)
(-0.495984 -0.454522 0)
(-0.504888 -0.501509 0)
(-0.518569 -0.554114 0)
(-0.536556 -0.613186 0)
(-0.554605 -0.675384 0)
(-0.563461 -0.730281 0)
(-0.550141 -0.75975 0)
(-0.502607 -0.741939 0)
(-0.416545 -0.660292 0)
(-0.301069 -0.515034 0)
(-0.179324 -0.331215 0)
(-0.0805176 -0.154851 0)
(-0.0231573 -0.0304557 0)
(-0.00128115 0.0280276 0)
(0.00137173 0.0284864 0)
(-0.00539706 0.126125 0)
(-0.0430514 0.250044 0)
(-0.0893677 0.339048 0)
(-0.139309 0.424657 0)
(-0.189892 0.505513 0)
(-0.238278 0.573708 0)
(-0.281418 0.622661 0)
(-0.316954 0.648857 0)
(-0.343657 0.652193 0)
(-0.361622 0.635552 0)
(-0.372158 0.603815 0)
(-0.377394 0.562591 0)
(-0.379687 0.51695 0)
(-0.381035 0.470548 0)
(-0.382719 0.425346 0)
(-0.385272 0.381902 0)
(-0.388677 0.339935 0)
(-0.39265 0.298869 0)
(-0.396869 0.258182 0)
(-0.401095 0.217534 0)
(-0.405204 0.176762 0)
(-0.409167 0.135814 0)
(-0.413008 0.0946887 0)
(-0.416757 0.0533975 0)
(-0.420438 0.0119442 0)
(-0.424123 -0.029671 0)
(-0.427864 -0.0714471 0)
(-0.431645 -0.113399 0)
(-0.435442 -0.155522 0)
(-0.439212 -0.19779 0)
(-0.442876 -0.240141 0)
(-0.446318 -0.282465 0)
(-0.449412 -0.32461 0)
(-0.452101 -0.366429 0)
(-0.454557 -0.407943 0)
(-0.45742 -0.449649 0)
(-0.46203 -0.492938 0)
(-0.470354 -0.540312 0)
(-0.48413 -0.594713 0)
(-0.502844 -0.657165 0)
(-0.521115 -0.722727 0)
(-0.527435 -0.776764 0)
(-0.506667 -0.795255 0)
(-0.44685 -0.752062 0)
(-0.347706 -0.632533 0)
(-0.225975 -0.448172 0)
(-0.11234 -0.242559 0)
(-0.0364023 -0.0761139 0)
(-0.00422485 0.0132259 0)
(0.0014613 0.0281051 0)
(-0.00454339 0.149774 0)
(-0.0403709 0.291427 0)
(-0.0846076 0.386058 0)
(-0.131512 0.473169 0)
(-0.177957 0.552691 0)
(-0.221236 0.616689 0)
(-0.258677 0.658991 0)
(-0.288444 0.677028 0)
(-0.309882 0.671931 0)
(-0.323609 0.647803 0)
(-0.331294 0.610441 0)
(-0.33516 0.565832 0)
(-0.33735 0.518842 0)
(-0.339431 0.472503 0)
(-0.342196 0.428036 0)
(-0.345782 0.385405 0)
(-0.349954 0.344008 0)
(-0.354377 0.303193 0)
(-0.358785 0.262507 0)
(-0.363037 0.221727 0)
(-0.3671 0.180788 0)
(-0.37101 0.139698 0)
(-0.374827 0.0984823 0)
(-0.378594 0.057155 0)
(-0.382336 0.0157105 0)
(-0.386121 -0.0258642 0)
(-0.390009 -0.0675802 0)
(-0.393989 -0.109471 0)
(-0.398047 -0.151553 0)
(-0.402161 -0.193833 0)
(-0.406275 -0.236295 0)
(-0.410288 -0.278877 0)
(-0.414044 -0.321451 0)
(-0.417351 -0.363812 0)
(-0.420065 -0.405736 0)
(-0.422279 -0.447176 0)
(-0.424656 -0.488695 0)
(-0.428771 -0.532065 0)
(-0.437031 -0.580584 0)
(-0.451496 -0.638027 0)
(-0.471138 -0.705044 0)
(-0.488561 -0.773443 0)
(-0.489245 -0.822008 0)
(-0.456296 -0.819397 0)
(-0.3801 -0.736988 0)
(-0.267975 -0.568445 0)
(-0.146939 -0.346001 0)
(-0.0534013 -0.137549 0)
(-0.00822341 -0.00881588 0)
(0.00147468 0.0261874 0)
(-0.00331577 0.171136 0)
(-0.0359842 0.330214 0)
(-0.077038 0.429953 0)
(-0.120018 0.51767 0)
(-0.161751 0.594999 0)
(-0.199754 0.65425 0)
(-0.231775 0.689813 0)
(-0.256475 0.700127 0)
(-0.273671 0.687518 0)
(-0.284347 0.65717 0)
(-0.290329 0.615563 0)
(-0.293726 0.568789 0)
(-0.296338 0.521292 0)
(-0.299277 0.4754 0)
(-0.302933 0.431664 0)
(-0.307194 0.389614 0)
(-0.311744 0.348486 0)
(-0.316293 0.307668 0)
(-0.32067 0.266825 0)
(-0.324828 0.225844 0)
(-0.328799 0.184734 0)
(-0.332651 0.143533 0)
(-0.336455 0.102269 0)
(-0.340254 0.0609475 0)
(-0.344062 0.0195488 0)
(-0.347934 -0.0219523 0)
(-0.351937 -0.0635745 0)
(-0.356063 -0.105363 0)
(-0.360299 -0.147348 0)
(-0.364639 -0.189557 0)
(-0.369055 -0.232008 0)
(-0.373485 -0.274693 0)
(-0.377813 -0.31755 0)
(-0.381852 -0.360428 0)
(-0.385351 -0.403066 0)
(-0.388085 -0.445149 0)
(-0.390103 -0.486577 0)
(-0.392161 -0.528077 0)
(-0.396167 -0.572056 0)
(-0.405035 -0.622919 0)
(-0.420925 -0.685184 0)
(-0.441446 -0.757853 0)
(-0.455917 -0.826669 0)
(-0.446317 -0.860821 0)
(-0.39569 -0.821476 0)
(-0.300768 -0.683183 0)
(-0.180769 -0.459503 0)
(-0.073606 -0.215114 0)
(-0.0135234 -0.0398833 0)
(0.00139026 0.0222524 0)
(-0.00180315 0.189231 0)
(-0.0301625 0.365288 0)
(-0.0671324 0.469848 0)
(-0.105537 0.557561 0)
(-0.14223 0.632197 0)
(-0.175002 0.686559 0)
(-0.202027 0.715689 0)
(-0.222397 0.719024 0)
(-0.236285 0.699992 0)
(-0.244871 0.664679 0)
(-0.249954 0.620007 0)
(-0.253392 0.571958 0)
(-0.256589 0.524433 0)
(-0.260259 0.479082 0)
(-0.26451 0.435909 0)
(-0.269108 0.394172 0)
(-0.273756 0.353074 0)
(-0.278245 0.312099 0)
(-0.2825 0.271034 0)
(-0.286541 0.229856 0)
(-0.290433 0.188611 0)
(-0.294253 0.147344 0)
(-0.298071 0.106074 0)
(-0.30192 0.0647919 0)
(-0.305803 0.0234648 0)
(-0.309762 -0.0179427 0)
(-0.313869 -0.0594534 0)
(-0.318125 -0.101122 0)
(-0.322503 -0.142984 0)
(-0.327007 -0.185081 0)
(-0.331625 -0.227448 0)
(-0.336327 -0.270113 0)
(-0.341045 -0.313075 0)
(-0.34565 -0.356269 0)
(-0.349923 -0.399512 0)
(-0.353556 -0.442464 0)
(-0.356262 -0.48471 0)
(-0.35809 -0.526146 0)
(-0.360003 -0.567871 0)
(-0.364421 -0.613334 0)
(-0.374794 -0.668413 0)
(-0.392809 -0.737784 0)
(-0.413274 -0.816126 0)
(-0.420827 -0.878755 0)
(-0.394593 -0.882549 0)
(-0.321466 -0.784882 0)
(-0.210264 -0.576002 0)
(-0.0954182 -0.30677 0)
(-0.0203496 -0.0816529 0)
(0.00125036 0.0158164 0)
(-0.000109686 0.203281 0)
(-0.0232124 0.395725 0)
(-0.0553886 0.50507 0)
(-0.0887707 0.592465 0)
(-0.120279 0.66424 0)
(-0.147998 0.713913 0)
(-0.170501 0.737215 0)
(-0.187232 0.734516 0)
(-0.198587 0.7102 0)
(-0.205787 0.67106 0)
(-0.210468 0.624256 0)
(-0.214162 0.575517 0)
(-0.217894 0.528177 0)
(-0.222068 0.483291 0)
(-0.226624 0.440468 0)
(-0.231307 0.398821 0)
(-0.23588 0.357599 0)
(-0.240226 0.316401 0)
(-0.244336 0.275116 0)
(-0.248271 0.233776 0)
(-0.252107 0.192444 0)
(-0.255914 0.151155 0)
(-0.259755 0.109914 0)
(-0.263659 0.0686983 0)
(-0.267619 0.0274638 0)
(-0.27166 -0.0138334 0)
(-0.275871 -0.0552179 0)
(-0.280255 -0.0967541 0)
(-0.284774 -0.138482 0)
(-0.289432 -0.180447 0)
(-0.294221 -0.222697 0)
(-0.299128 -0.265276 0)
(-0.304116 -0.308222 0)
(-0.309111 -0.351541 0)
(-0.313968 -0.39515 0)
(-0.318428 -0.438812 0)
(-0.322125 -0.482081 0)
(-0.324729 -0.524437 0)
(-0.32638 -0.565896 0)
(-0.328436 -0.608313 0)
(-0.334042 -0.656826 0)
(-0.347009 -0.718974 0)
(-0.367336 -0.797686 0)
(-0.384956 -0.878296 0)
(-0.379072 -0.920201 0)
(-0.329133 -0.868428 0)
(-0.232669 -0.688485 0)
(-0.116681 -0.408524 0)
(-0.028702 -0.135274 0)
(0.00111735 0.0063676 0)
(0.00165492 0.212729 0)
(-0.0154503 0.420793 0)
(-0.0422888 0.535127 0)
(-0.0703618 0.622173 0)
(-0.0966714 0.691205 0)
(-0.119578 0.736662 0)
(-0.138016 0.754952 0)
(-0.151693 0.747264 0)
(-0.161107 0.718771 0)
(-0.167394 0.67678 0)
(-0.171934 0.628539 0)
(-0.175912 0.579454 0)
(-0.180026 0.532338 0)
(-0.184466 0.487773 0)
(-0.189097 0.445104 0)
(-0.193695 0.403396 0)
(-0.198102 0.361975 0)
(-0.20227 0.320547 0)
(-0.206237 0.279076 0)
(-0.210078 0.237623 0)
(-0.213865 0.196248 0)
(-0.217661 0.154973 0)
(-0.221518 0.113789 0)
(-0.225467 0.072662 0)
(-0.229494 0.0315415 0)
(-0.233608 -0.00962597 0)
(-0.237917 -0.0508647 0)
(-0.242437 -0.0922519 0)
(-0.247108 -0.133831 0)
(-0.251934 -0.175653 0)
(-0.256906 -0.217767 0)
(-0.262014 -0.260229 0)
(-0.267237 -0.303096 0)
(-0.272535 -0.346414 0)
(-0.277821 -0.390186 0)
(-0.282918 -0.434295 0)
(-0.287522 -0.478409 0)
(-0.291206 -0.521937 0)
(-0.293642 -0.56429 0)
(-0.295209 -0.605884 0)
(-0.297946 -0.650039 0)
(-0.305892 -0.704397 0)
(-0.322504 -0.777444 0)
(-0.343819 -0.865682 0)
(-0.352681 -0.937164 0)
(-0.324576 -0.931433 0)
(-0.246465 -0.791084 0)
(-0.135342 -0.515329 0)
(-0.0381905 -0.200519 0)
(0.000968913 -0.00656324 0)
(0.00338472 0.217263 0)
(-0.00718526 0.439906 0)
(-0.0282818 0.559675 0)
(-0.0508738 0.646599 0)
(-0.0720452 0.713236 0)
(-0.090391 0.75515 0)
(-0.10516 0.769377 0)
(-0.116241 0.757777 0)
(-0.124131 0.726133 0)
(-0.129787 0.682102 0)
(-0.134285 0.632917 0)
(-0.138475 0.583663 0)
(-0.142792 0.536718 0)
(-0.147293 0.492319 0)
(-0.151832 0.449656 0)
(-0.15624 0.407799 0)
(-0.160432 0.366161 0)
(-0.164409 0.32453 0)
(-0.168232 0.282918 0)
(-0.171977 0.241397 0)
(-0.175709 0.200018 0)
(-0.179478 0.158787 0)
(-0.183332 0.117682 0)
(-0.187308 0.0766673 0)
(-0.191388 0.0356853 0)
(-0.195559 -0.00532552 0)
(-0.199957 -0.0463925 0)
(-0.204619 -0.0876052 0)
(-0.209455 -0.129015 0)
(-0.21447 -0.170674 0)
(-0.219652 -0.212637 0)
(-0.224989 -0.254961 0)
(-0.230465 -0.297713 0)
(-0.236056 -0.340963 0)
(-0.241708 -0.384764 0)
(-0.247312 -0.429099 0)
(-0.252651 -0.473779 0)
(-0.257355 -0.518321 0)
(-0.26095 -0.561959 0)
(-0.263202 -0.604182 0)
(-0.264986 -0.646409 0)
(-0.269394 -0.694577 0)
(-0.281208 -0.759366 0)
(-0.301621 -0.846872 0)
(-0.319375 -0.937835 0)
(-0.309823 -0.973976 0)
(-0.251404 -0.879682 0)
(-0.149918 -0.622051 0)
(-0.0480843 -0.275626 0)
(0.000664667 -0.023421 0)
(0.00493821 0.216696 0)
(0.0012776 0.452722 0)
(-0.013767 0.578457 0)
(-0.0307875 0.665728 0)
(-0.0469139 0.730499 0)
(-0.0609251 0.769676 0)
(-0.0723352 0.78086 0)
(-0.0811439 0.766415 0)
(-0.087774 0.732553 0)
(-0.0929421 0.687144 0)
(-0.0973992 0.637357 0)
(-0.10169 0.588003 0)
(-0.106046 0.541137 0)
(-0.110451 0.496769 0)
(-0.114781 0.454013 0)
(-0.118934 0.411972 0)
(-0.122879 0.370132 0)
(-0.126652 0.328342 0)
(-0.13032 0.286636 0)
(-0.133954 0.245088 0)
(-0.137609 0.203736 0)
(-0.141329 0.162574 0)
(-0.145158 0.121573 0)
(-0.149138 0.0806933 0)
(-0.153255 0.0398802 0)
(-0.157465 -0.000936515 0)
(-0.161939 -0.0418016 0)
(-0.166743 -0.0828043 0)
(-0.171758 -0.124014 0)
(-0.17698 -0.165484 0)
(-0.1824 -0.207271 0)
(-0.188002 -0.249435 0)
(-0.193771 -0.292045 0)
(-0.199687 -0.335183 0)
(-0.205715 -0.378934 0)
(-0.211783 -0.423347 0)
(-0.217745 -0.468351 0)
(-0.223325 -0.513622 0)
(-0.228082 -0.558461 0)
(-0.231536 -0.601956 0)
(-0.233734 -0.644095 0)
(-0.236464 -0.688484 0)
(-0.244165 -0.745179 0)
(-0.261215 -0.82655 0)
(-0.282801 -0.927173 0)
(-0.28753 -0.997982 0)
(-0.248258 -0.952028 0)
(-0.159673 -0.724192 0)
(-0.0575501 -0.357832 0)
(-5.02747e-06 -0.0446314 0)
(0.00616048 0.211257 0)
(0.00957521 0.458799 0)
(0.000931095 0.59138 0)
(-0.0105034 0.67957 0)
(-0.0216842 0.743147 0)
(-0.0315362 0.780471 0)
(-0.039801 0.789659 0)
(-0.0465399 0.773403 0)
(-0.0520502 0.73817 0)
(-0.0567759 0.691933 0)
(-0.0611421 0.641786 0)
(-0.065418 0.592342 0)
(-0.0696794 0.545454 0)
(-0.073873 0.501011 0)
(-0.0779163 0.458102 0)
(-0.0817663 0.415875 0)
(-0.0854382 0.373869 0)
(-0.0889864 0.331965 0)
(-0.0924781 0.29021 0)
(-0.0959752 0.248672 0)