/*--------------------------------*- C++ -*----------------------------------*\
  =========                 |
  \\      /  F ield         | OpenFOAM: The Open Source CFD Toolbox
   \\    /   O peration     | Website:  https://openfoam.org
    \\  /    A nd           | Version:  7
     \\/     M anipulation  |
\*---------------------------------------------------------------------------*/
FoamFile
{
    version     2.0;
    format      ascii;
    class       volScalarField;
    location    "1900";
    object      p;
}
// * * * * * * * * * * * * * * * * * * * * * * * * * * * * * * * * * * * * * //

dimensions      [0 2 -2 0 0 0 0];

internalField   nonuniform List<scalar> 
2500
(
9.60045e-08
7.09253e-05
-9.00674e-06
-0.00030781
-0.00078219
-0.00136972
-0.0020302
-0.00275912
-0.00358216
-0.00453998
-0.00567265
-0.00701004
-0.00856908
-0.0103495
-0.0123278
-0.01445
-0.0166238
-0.0187178
-0.0205669
-0.0219893
-0.02281
-0.0228899
-0.0221537
-0.0206177
-0.0184081
-0.015751
-0.0129679
-0.0104763
-0.008738
-0.00819052
-0.00916663
-0.0118028
-0.0159864
-0.0214218
-0.0276493
-0.0341074
-0.0402674
-0.0457286
-0.0502601
-0.0537872
-0.0563599
-0.0581132
-0.0592216
-0.0598613
-0.060184
-0.0603059
-0.060305
-0.0602236
-0.0600843
-0.0599451
-6.91929e-05
3.60888e-06
-8.0195e-05
-0.000376641
-0.000829018
-0.00137317
-0.00197397
-0.00263286
-0.00337842
-0.00425096
-0.00528931
-0.00652341
-0.00797395
-0.00964869
-0.011536
-0.0135991
-0.015767
-0.0179284
-0.0199304
-0.0215893
-0.0227128
-0.0231311
-0.0227303
-0.0214864
-0.0194944
-0.0169714
-0.0142546
-0.0117794
-0.0100263
-0.00945223
-0.0104055
-0.013045
-0.0172864
-0.0227799
-0.0290233
-0.0354684
-0.0415609
-0.0468603
-0.0511274
-0.0543355
-0.0566026
-0.0581102
-0.0590518
-0.0596003
-0.0598917
-0.0600234
-0.0600572
-0.0600226
-0.059921
-0.0597893
-1.92331e-05
4.94603e-05
-5.74486e-05
-0.00037991
-0.000832311
-0.00133889
-0.00186948
-0.00243686
-0.0030821
-0.00385273
-0.00479287
-0.00594288
-0.00734078
-0.00902101
-0.0110035
-0.0132773
-0.0157819
-0.0183957
-0.0209365
-0.0231777
-0.0248803
-0.0258303
-0.0258763
-0.0249671
-0.0231954
-0.0207885
-0.0180833
-0.0155134
-0.0135716
-0.0127382
-0.0133947
-0.015739
-0.0197259
-0.0250534
-0.0312126
-0.037582
-0.0435841
-0.0487767
-0.0528795
-0.0558273
-0.0577503
-0.0588942
-0.0595126
-0.0598103
-0.0599317
-0.0599665
-0.0599612
-0.0599256
-0.0598298
-0.0596854
0.000227954
0.000266021
0.000101588
-0.000279707
-0.0007555
-0.00123682
-0.00170272
-0.0021853
-0.00274559
-0.00345466
-0.00438587
-0.0056187
-0.00723795
-0.00932063
-0.0119096
-0.0149848
-0.0184432
-0.0220965
-0.0256887
-0.0289295
-0.0315345
-0.0332641
-0.0339536
-0.0335394
-0.0320937
-0.0298189
-0.0270273
-0.0241403
-0.0216529
-0.0200714
-0.0198331
-0.0212175
-0.0242733
-0.0287872
-0.0343085
-0.0402341
-0.0459416
-0.0509123
-0.054851
-0.057668
-0.0594147
-0.0603031
-0.0606143
-0.0606084
-0.0604698
-0.0603082
-0.0601739
-0.060068
-0.059938
-0.0597731
0.000707217
0.000677118
0.000417948
-4.42177e-05
-0.00055542
-0.00102931
-0.00146038
-0.0019086
-0.00247464
-0.00328045
-0.00446303
-0.00617019
-0.00854121
-0.0116717
-0.0155759
-0.0201632
-0.0252373
-0.0305172
-0.0356726
-0.0403627
-0.0442727
-0.0471451
-0.0488019
-0.0491589
-0.0482454
-0.0462065
-0.0433081
-0.0399357
-0.0365609
-0.0336984
-0.0318409
-0.0313765
-0.0325065
-0.0351871
-0.039118
-0.043794
-0.048615
-0.0530201
-0.0566099
-0.0591971
-0.0608156
-0.0616218
-0.0618071
-0.0616217
-0.0612847
-0.0609394
-0.0606595
-0.0604579
-0.0602815
-0.0601046
0.00146234
0.00132833
0.000948965
0.000397357
-0.000168796
-0.000675307
-0.00114683
-0.00169619
-0.0024926
-0.00374221
-0.00567064
-0.00849194
-0.0123618
-0.0173314
-0.0233209
-0.0301223
-0.0374263
-0.0448614
-0.0520344
-0.0585654
-0.0641165
-0.0684176
-0.0712812
-0.0726082
-0.0723957
-0.0707288
-0.0678064
-0.0639488
-0.0595627
-0.0551243
-0.0511374
-0.0480723
-0.0462941
-0.0459893
-0.0471119
-0.049378
-0.0523247
-0.0554225
-0.0582046
-0.0603613
-0.0617723
-0.0624867
-0.0626683
-0.06248
-0.0620934
-0.0616676
-0.0613018
-0.0610333
-0.060828
-0.0606565
0.00253178
0.00226899
0.00176022
0.00110871
0.000451787
-0.000167426
-0.000837037
-0.00175268
-0.00318378
-0.00544043
-0.00882458
-0.0135655
-0.0197602
-0.0273421
-0.0360864
-0.0456449
-0.0555933
-0.0654784
-0.0748584
-0.0833326
-0.0905662
-0.0963037
-0.100373
-0.102681
-0.103223
-0.102053
-0.0992952
-0.0951826
-0.0900186
-0.0841779
-0.0780917
-0.0722251
-0.0670361
-0.0629151
-0.0601134
-0.0586874
-0.0584787
-0.059149
-0.0602707
-0.0614421
-0.0623752
-0.062931
-0.0631083
-0.0629951
-0.0626952
-0.0623202
-0.0619696
-0.0617008
-0.061505
-0.0613598
0.00392194
0.00352302
0.002884
0.00211031
0.00129509
0.000410619
-0.000728357
-0.00243097
-0.00508227
-0.00907633
-0.0147288
-0.0221959
-0.0314309
-0.0421894
-0.0540725
-0.0665866
-0.0792047
-0.0914172
-0.102768
-0.112881
-0.121468
-0.12833
-0.133341
-0.136441
-0.137647
-0.137021
-0.134631
-0.130626
-0.125188
-0.11855
-0.110998
-0.102882
-0.0946156
-0.086656
-0.0794623
-0.073435
-0.0688388
-0.0657373
-0.063973
-0.0632134
-0.0630547
-0.0631361
-0.063213
-0.0631786
-0.0630292
-0.0628062
-0.0625724
-0.0623815
-0.0622413
-0.0621406
0.00557812
0.00504997
0.00427572
0.00333735
0.0022393
0.000843395
-0.00116253
-0.00421441
-0.00878963
-0.0152966
-0.0239651
-0.0347807
-0.0474823
-0.0616122
-0.0765929
-0.0918075
-0.106668
-0.120662
-0.133381
-0.144526
-0.153902
-0.161395
-0.16695
-0.170546
-0.172228
-0.172094
-0.170187
-0.166586
-0.161378
-0.154662
-0.146564
-0.137259
-0.126991
-0.116106
-0.105069
-0.0944524
-0.0848756
-0.0768967
-0.0708773
-0.0668686
-0.0645922
-0.0635502
-0.0632089
-0.0631537
-0.0631543
-0.0631347
-0.0630901
-0.0630432
-0.0629981
-0.0629531
0.00734991
0.00670672
0.00578609
0.00460111
0.00302307
0.000773106
-0.00260081
-0.00763957
-0.0148428
-0.0245279
-0.0367311
-0.0511868
-0.0673793
-0.0846378
-0.102241
-0.11951
-0.13587
-0.150881
-0.164242
-0.175772
-0.185383
-0.193055
-0.198796
-0.202622
-0.204597
-0.204843
-0.2034
-0.200309
-0.195602
-0.189298
-0.181408
-0.171946
-0.160961
-0.148583
-0.135088
-0.120954
-0.106888
-0.0937846
-0.0825647
-0.0739362
-0.0681487
-0.0649013
-0.0634925
-0.0631312
-0.0632064
-0.063388
-0.0635681
-0.063706
-0.0637811
-0.0637957
0.00897936
0.00824013
0.00713763
0.00557308
0.0032494
-0.000266409
-0.00554972
-0.0131829
-0.0235838
-0.0368654
-0.0527824
-0.0707745
-0.0900764
-0.109852
-0.129316
-0.147817
-0.164879
-0.1802
-0.193616
-0.205069
-0.214567
-0.222154
-0.227882
-0.231785
-0.23393
-0.234443
-0.233359
-0.230707
-0.226505
-0.220746
-0.213392
-0.204375
-0.193608
-0.181025
-0.166643
-0.150661
-0.13357
-0.116241
-0.0998829
-0.085833
-0.075162
-0.0682638
-0.0646944
-0.063426
-0.0633536
-0.0636968
-0.0640955
-0.0644312
-0.0646362
-0.064711
0.010113
0.00928263
0.00793116
0.00580974
0.00243376
-0.00277314
-0.0104589
-0.0211528
-0.035078
-0.0520502
-0.0714943
-0.0925622
-0.114295
-0.135785
-0.156283
-0.175262
-0.192406
-0.20757
-0.220724
-0.231905
-0.241177
-0.248617
-0.254286
-0.258227
-0.260489
-0.261185
-0.26034
-0.257985
-0.254141
-0.248808
-0.241951
-0.233492
-0.223305
-0.211226
-0.197086
-0.180793
-0.162471
-0.142636
-0.122339
-0.103157
-0.0868868
-0.0749442
-0.0677459
-0.0645277
-0.0638115
-0.0641779
-0.0647734
-0.0653014
-0.0656385
-0.0657766
0.0103221
0.00938634
0.00769476
0.0048176
8.7093e-05
-0.0071796
-0.0176256
-0.0316221
-0.049103
-0.0695326
-0.09201
-0.115457
-0.138821
-0.16123
-0.182072
-0.200999
-0.217872
-0.232686
-0.245507
-0.256422
-0.265516
-0.272863
-0.27852
-0.282516
-0.284885
-0.285718
-0.285026
-0.282843
-0.279194
-0.274093
-0.267531
-0.25946
-0.249782
-0.238333
-0.224887
-0.209189
-0.191048
-0.170518
-0.148149
-0.125227
-0.103767
-0.0860617
-0.0737886
-0.0671724
-0.0648954
-0.0649403
-0.065685
-0.0663972
-0.0668747
-0.067088
0.00916176
0.0080953
0.00596185
0.00214163
-0.00418982
-0.0137646
-0.0271329
-0.0444161
-0.0651993
-0.0885909
-0.113417
-0.138467
-0.162705
-0.185395
-0.206119
-0.22472
-0.241207
-0.255674
-0.268233
-0.278982
-0.287998
-0.295338
-0.301042
-0.305125
-0.307603
-0.30855
-0.307967
-0.305883
-0.302324
-0.297312
-0.290857
-0.282949
-0.273539
-0.262521
-0.249711
-0.234836
-0.217564
-0.197606
-0.174956
-0.150245
-0.125077
-0.102009
-0.0838365
-0.0723116
-0.0671243
-0.0661498
-0.0668812
-0.0677858
-0.0684279
-0.0687418
0.00625545
0.00502585
0.00235823
-0.00254687
-0.0106275
-0.0225985
-0.038836
-0.0591496
-0.0827597
-0.10846
-0.134893
-0.160824
-0.185333
-0.207881
-0.22825
-0.246447
-0.262583
-0.276795
-0.289203
-0.299892
-0.308914
-0.316307
-0.322093
-0.326276
-0.328859
-0.329907
-0.329415
-0.327404
-0.323896
-0.318911
-0.312469
-0.304578
-0.295231
-0.284387
-0.271943
-0.257703
-0.241354
-0.222485
-0.200713
-0.175993
-0.149114
-0.122149
-0.0983252
-0.0808725
-0.0712392
-0.0681175
-0.0684344
-0.0695282
-0.0703712
-0.0708278
0.0013639
-5.951e-05
-0.00332502
-0.00938673
-0.0192443
-0.0335317
-0.0523915
-0.0752959
-0.101127
-0.128438
-0.155788
-0.182018
-0.206389
-0.228566
-0.248511
-0.26634
-0.282213
-0.296275
-0.308623
-0.319317
-0.328387
-0.335851
-0.341721
-0.345996
-0.348671
-0.349806
-0.349397
-0.347456
-0.343998
-0.33904
-0.332597
-0.324682
-0.315308
-0.304473
-0.292148
-0.278239
-0.262543
-0.244702
-0.224215
-0.200601
-0.17382
-0.144972
-0.116825
-0.0933928
-0.0780681
-0.071368
-0.0705096
-0.0716901
-0.0727813
-0.073437
-0.00556601
-0.00720434
-0.0110909
-0.0183014
-0.0298441
-0.0462225
-0.0673142
-0.0922646
-0.119674
-0.147945
-0.175647
-0.201764
-0.225757
-0.247481
-0.267024
-0.284561
-0.300261
-0.314245
-0.326582
-0.337304
-0.346423
-0.353947
-0.359884
-0.36423
-0.366978
-0.368184
-0.367849
-0.365978
-0.362582
-0.357671
-0.351254
-0.343341
-0.333943
-0.323074
-0.310745
-0.296942
-0.281582
-0.264446
-0.245115
-0.222976
-0.197448
-0.168604
-0.138108
-0.109729
-0.0882451
-0.076578
-0.0734255
-0.0743737
-0.0757721
-0.0766758
-0.0143867
-0.0162469
-0.0207345
-0.0290123
-0.0420505
-0.0601912
-0.0830451
-0.109469
-0.137855
-0.166541
-0.194178
-0.219925
-0.243435
-0.264708
-0.283907
-0.301226
-0.316813
-0.330755
-0.343092
-0.353835
-0.362985
-0.370545
-0.376524
-0.380918
-0.383721
-0.384982
-0.384712
-0.382907
-0.379578
-0.374732
-0.368371
-0.360501
-0.351126
-0.340258
-0.327917
-0.314128
-0.298893
-0.282137
-0.26361
-0.242797
-0.218939
-0.191384
-0.160525
-0.129016
-0.101929
-0.0843922
-0.0776422
-0.07774
-0.0794675
-0.0806562
-0.0247703
-0.0268436
-0.0318747
-0.0410823
-0.0553614
-0.0748831
-0.0990125
-0.126374
-0.155227
-0.183914
-0.211211
-0.236456
-0.25946
-0.280321
-0.299238
-0.31639
-0.331894
-0.345802
-0.35813
-0.368874
-0.378031
-0.385605
-0.391604
-0.396029
-0.398871
-0.400173
-0.399957
-0.398212
-0.394948
-0.390171
-0.383884
-0.376088
-0.366782
-0.35597
-0.343668
-0.329905
-0.314722
-0.29814
-0.280078
-0.260227
-0.23792
-0.212212
-0.182496
-0.149907
-0.118673
-0.0951875
-0.0836658
-0.0820194
-0.0839731
-0.0854911
-0.0362553
-0.0385181
-0.0440082
-0.0539751
-0.0692121
-0.0897277
-0.114679
-0.142521
-0.171445
-0.19985
-0.226652
-0.251348
-0.273868
-0.294369
-0.313051
-0.330066
-0.345495
-0.359361
-0.371661
-0.382387
-0.391534
-0.399104
-0.405109
-0.409551
-0.412422
-0.413755
-0.413582
-0.411888
-0.408684
-0.403974
-0.397763
-0.390053
-0.380841
-0.37013
-0.357923
-0.344242
-0.329131
-0.312653
-0.294844
-0.275597
-0.254482
-0.230609
-0.202846
-0.170938
-0.137508
-0.108907
-0.0919246
-0.0875054
-0.0893794
-0.0913002
-0.0483059
-0.0507217
-0.0565716
-0.0671165
-0.0830317
-0.104185
-0.129571
-0.157534
-0.186251
-0.214203
-0.240444
-0.264597
-0.286678
-0.306866
-0.325346
-0.342238
-0.357589
-0.3714
-0.383659
-0.394352
-0.403476
-0.411033
-0.417035
-0.421487
-0.424378
-0.425734
-0.425597
-0.423946
-0.420791
-0.416141
-0.410002
-0.402376
-0.393267
-0.382674
-0.370599
-0.357054
-0.342072
-0.325717
-0.30808
-0.289201
-0.268901
-0.246545
-0.220927
-0.190868
-0.157189
-0.125024
-0.102617
-0.094478
-0.0957791
-0.0981957
-0.0603716
-0.0628936
-0.0689993
-0.0799477
-0.0962874
-0.117774
-0.14329
-0.171116
-0.199452
-0.22687
-0.252544
-0.276194
-0.297885
-0.317801
-0.336103
-0.352878
-0.368145
-0.381892
-0.3941
-0.404753
-0.413848
-0.421388
-0.427383
-0.43184
-0.434748
-0.436119
-0.436011
-0.434394
-0.431282
-0.426682
-0.420604
-0.413055
-0.404042
-0.393568
-0.381638
-0.368259
-0.353453
-0.337274
-0.319816
-0.301199
-0.281439
-0.260207
-0.236527
-0.208846
-0.176482
-0.142637
-0.115594
-0.103129
-0.103281
-0.106235
-0.0719378
-0.0745149
-0.0807713
-0.0919661
-0.108514
-0.130093
-0.155514
-0.183037
-0.210903
-0.237773
-0.262915
-0.286117
-0.30747
-0.327149
-0.34529
-0.361951
-0.377133
-0.390813
-0.402966
-0.413579
-0.422646
-0.430169
-0.436157
-0.440617
-0.443537
-0.444917
-0.444833
-0.443243
-0.440163
-0.435603
-0.429575
-0.42209
-0.413159
-0.402794
-0.391002
-0.377795
-0.36319
-0.347227
-0.329991
-0.31162
-0.292251
-0.271819
-0.249703
-0.224426
-0.194366
-0.160654
-0.130342
-0.113471
-0.11194
-0.115356
-0.0825852
-0.0851235
-0.0914468
-0.102749
-0.119331
-0.14082
-0.165994
-0.193123
-0.220496
-0.246848
-0.271517
-0.294334
-0.315399
-0.334873
-0.352869
-0.369424
-0.384524
-0.398139
-0.410244
-0.420821
-0.429865
-0.437375
-0.443357
-0.447818
-0.450749
-0.452135
-0.452069
-0.450498
-0.447441
-0.44291
-0.436918
-0.429481
-0.420615
-0.410338
-0.398668
-0.385619
-0.371214
-0.355486
-0.338506
-0.320406
-0.301373
-0.281528
-0.260601
-0.237455
-0.210124
-0.177989
-0.146049
-0.125262
-0.121661
-0.125319
-0.0919964
-0.0943421
-0.100666
-0.111969
-0.128444
-0.149712
-0.174547
-0.201245
-0.228146
-0.25404
-0.27831
-0.300809
-0.321635
-0.340936
-0.358805
-0.375264
-0.390292
-0.403853
-0.415918
-0.42647
-0.4355
-0.443004
-0.448985
-0.45345
-0.456389
-0.457782
-0.457726
-0.456169
-0.453124
-0.448608
-0.442636
-0.435227
-0.426404
-0.416192
-0.404615
-0.391699
-0.377473
-0.361971
-0.345258
-0.327453
-0.308752
-0.28938
-0.269347
-0.247946
-0.22333
-0.193706
-0.161746
-0.137971
-0.132098
-0.135701
-0.0999228
-0.10194
-0.108156
-0.119383
-0.13565
-0.1566
-0.181043
-0.207314
-0.233793
-0.259305
-0.283256
-0.305503
-0.326139
-0.345299
-0.363062
-0.379444
-0.394414
-0.407936
-0.419978
-0.430519
-0.439547
-0.447056
-0.453044
-0.457515
-0.460464
-0.461869
-0.461817
-0.460268
-0.457226
-0.45271
-0.446739
-0.439336
-0.430528
-0.420348
-0.408831
-0.396011
-0.381926
-0.36662
-0.350157
-0.332648
-0.314283
-0.295331
-0.275993
-0.255961
-0.23378
-0.2071
-0.176449
-0.150849
-0.142707
-0.145962
-0.106198
-0.107799
-0.113764
-0.124838
-0.140828
-0.161401
-0.185427
-0.211289
-0.237403
-0.262612
-0.286322
-0.308382
-0.328874
-0.347925
-0.365608
-0.381933
-0.396867
-0.41037
-0.422408
-0.432956
-0.441999
-0.449527
-0.455533
-0.460019
-0.46298
-0.464396
-0.464347
-0.462803
-0.459753
-0.455224
-0.449235
-0.441813
-0.43299
-0.422807
-0.411307
-0.398536
-0.384544
-0.369385
-0.353129
-0.335888
-0.317845
-0.299284
-0.280513
-0.261541
-0.241398
-0.217697
-0.189287
-0.163049
-0.152854
-0.155531
-0.110754
-0.111881
-0.117447
-0.128275
-0.143928
-0.164071
-0.187654
-0.213124
-0.23893
-0.263918
-0.287473
-0.309422
-0.329828
-0.348811
-0.366442
-0.382734
-0.397656
-0.411163
-0.423219
-0.433795
-0.44287
-0.45043
-0.456464
-0.460967
-0.463936
-0.465357
-0.465305
-0.463763
-0.460698
-0.456141
-0.450116
-0.44265
-0.433781
-0.423557
-0.412031
-0.39926
-0.385303
-0.370228
-0.354116
-0.337086
-0.319324
-0.301114
-0.282824
-0.264678
-0.246168
-0.225216
-0.199573
-0.173753
-0.161905
-0.163867
-0.113619
-0.114241
-0.119272
-0.129742
-0.144991
-0.164649
-0.187751
-0.212823
-0.238351
-0.263172
-0.286638
-0.308539
-0.328914
-0.347872
-0.365491
-0.381784
-0.396726
-0.410271
-0.422379
-0.433015
-0.442155
-0.449779
-0.455873
-0.460425
-0.463431
-0.464874
-0.464798
-0.463226
-0.46011
-0.455487
-0.449384
-0.441835
-0.432885
-0.422581
-0.410983
-0.398157
-0.384173
-0.369111
-0.353068
-0.336173
-0.31862
-0.300701
-0.282814
-0.265319
-0.248082
-0.229509
-0.206813
-0.182251
-0.169289
-0.170489
-0.114902
-0.115019
-0.119394
-0.129365
-0.144126
-0.163228
-0.185794
-0.210439
-0.235692
-0.26038
-0.283808
-0.305716
-0.326111
-0.34509
-0.362731
-0.379059
-0.39405
-0.407664
-0.419853
-0.43058
-0.439812
-0.447525
-0.453698
-0.458318
-0.461374
-0.462857
-0.462782
-0.461191
-0.458025
-0.453325
-0.447126
-0.439458
-0.430369
-0.419917
-0.408172
-0.395212
-0.381123
-0.365996
-0.349936
-0.333084
-0.31565
-0.297937
-0.280366
-0.26338
-0.247121
-0.230507
-0.210683
-0.18797
-0.17451
-0.174977
-0.114778
-0.114428
-0.11805
-0.127349
-0.141498
-0.159949
-0.181893
-0.206046
-0.230994
-0.255553
-0.278975
-0.300937
-0.321402
-0.340447
-0.358152
-0.37455
-0.389628
-0.403344
-0.415651
-0.426503
-0.435861
-0.443694
-0.449975
-0.454684
-0.457808
-0.459336
-0.459269
-0.457657
-0.454433
-0.44964
-0.443319
-0.435503
-0.426242
-0.4156
-0.403654
-0.390487
-0.376196
-0.360886
-0.344687
-0.327764
-0.31034
-0.292729
-0.275372
-0.258767
-0.243247
-0.228184
-0.210994
-0.190479
-0.177141
-0.176968
-0.113476
-0.112731
-0.115537
-0.123969
-0.137337
-0.155004
-0.176199
-0.199749
-0.224312
-0.248705
-0.272122
-0.294167
-0.314746
-0.333906
-0.351722
-0.368236
-0.383441
-0.397302
-0.409767
-0.420786
-0.43031
-0.4383
-0.444723
-0.44955
-0.452764
-0.454349
-0.454296
-0.452663
-0.449375
-0.444475
-0.438007
-0.430009
-0.420531
-0.409644
-0.397429
-0.38398
-0.369401
-0.353812
-0.337357
-0.320219
-0.302651
-0.285005
-0.267744
-0.251391
-0.236411
-0.222532
-0.207646
-0.18947
-0.176813
-0.176136
-0.111261
-0.110219
-0.112194
-0.119563
-0.131933
-0.148634
-0.168909
-0.19169
-0.215729
-0.239863
-0.263235
-0.285368
-0.306093
-0.325417
-0.343398
-0.360079
-0.375463
-0.389517
-0.402189
-0.413422
-0.423158
-0.431349
-0.437952
-0.442932
-0.446262
-0.447925
-0.447903
-0.446248
-0.442896
-0.437877
-0.43124
-0.423025
-0.413288
-0.402098
-0.389545
-0.375728
-0.360762
-0.34478
-0.327941
-0.310454
-0.292599
-0.274758
-0.257436
-0.241192
-0.226572
-0.213551
-0.200601
-0.184736
-0.173204
-0.172185
-0.10841
-0.107185
-0.108367
-0.114505
-0.125628
-0.14113
-0.160262
-0.182052
-0.205364
-0.22908
-0.252312
-0.2745
-0.295389
-0.314921
-0.333127
-0.350039
-0.365663
-0.379971
-0.392907
-0.404409
-0.414411
-0.422853
-0.429682
-0.434855
-0.438337
-0.440103
-0.440135
-0.438464
-0.43505
-0.429906
-0.42308
-0.414618
-0.404576
-0.393028
-0.380065
-0.365793
-0.350334
-0.333836
-0.316475
-0.298486
-0.280182
-0.261986
-0.244448
-0.228163
-0.213725
-0.201264
-0.189867
-0.176158
-0.166027
-0.164833
-0.105193
-0.103899
-0.104376
-0.109179
-0.118802
-0.132823
-0.150534
-0.171053
-0.193365
-0.216436
-0.239367
-0.261529
-0.282568
-0.302347
-0.320842
-0.338062
-0.354005
-0.368641
-0.381914
-0.393753
-0.404084
-0.412836
-0.419946
-0.425361
-0.429036
-0.430939
-0.431048
-0.429379
-0.42591
-0.420636
-0.413606
-0.404869
-0.394482
-0.382518
-0.369071
-0.354253
-0.338193
-0.32105
-0.303023
-0.284372
-0.265451
-0.246727
-0.228804
-0.212326
-0.197928
-0.185743
-0.175504
-0.163696
-0.155037
-0.153809
-0.101844
-0.100577
-0.100484
-0.103941
-0.11185
-0.124081
-0.14004
-0.158945
-0.17992
-0.202038
-0.224435
-0.246426
-0.267565
-0.287609
-0.306459
-0.324077
-0.340437
-0.355498
-0.369198
-0.381459
-0.392197
-0.401332
-0.408788
-0.414501
-0.418419
-0.420501
-0.420718
-0.419075
-0.415562
-0.41016
-0.402915
-0.393879
-0.383107
-0.370673
-0.35667
-0.341214
-0.324442
-0.306525
-0.287683
-0.26821
-0.2485
-0.229076
-0.210595
-0.193756
-0.179251
-0.167137
-0.157642
-0.14739
-0.140045
-0.138854
-0.0985503
-0.0973788
-0.0968776
-0.0990808
-0.105149
-0.11529
-0.129122
-0.146014
-0.165245
-0.186031
-0.207579
-0.229187
-0.250317
-0.270616
-0.289879
-0.307995
-0.324891
-0.340499
-0.354742
-0.367532
-0.378776
-0.38838
-0.39626
-0.402341
-0.406561
-0.408871
-0.409237
-0.407649
-0.404111
-0.398589
-0.391124
-0.381769
-0.370577
-0.35762
-0.342992
-0.326809
-0.309216
-0.290398
-0.270599
-0.250147
-0.229485
-0.209193
-0.18999
-0.172627
-0.157832
-0.145652
-0.13648
-0.127364
-0.12095
-0.119741
-0.0954408
-0.0944055
-0.0936652
-0.0948015
-0.0990207
-0.106829
-0.118143
-0.132568
-0.149588
-0.168594
-0.188906
-0.20984
-0.23079
-0.251287
-0.271002
-0.289716
-0.307282
-0.323585
-0.338516
-0.351971
-0.363842
-0.374025
-0.382424
-0.388956
-0.393549
-0.396147
-0.396711
-0.395216
-0.391678
-0.386049
-0.378365
-0.368677
-0.357036
-0.343511
-0.328193
-0.311201
-0.292688
-0.272853
-0.251967
-0.230396
-0.208635
-0.187325
-0.167247
-0.149201
-0.133941
-0.121521
-0.112282
-0.103802
-0.0977419
-0.0962306
-0.0925935
-0.0917128
-0.0908871
-0.0912022
-0.0936917
-0.099026
-0.107455
-0.11893
-0.133219
-0.149942
-0.168568
-0.188471
-0.209004
-0.229588
-0.249755
-0.269154
-0.28753
-0.304693
-0.320484
-0.334767
-0.347415
-0.358309
-0.367345
-0.374427
-0.379479
-0.382437
-0.383256
-0.381904
-0.378396
-0.372682
-0.364788
-0.35476
-0.342649
-0.32852
-0.312462
-0.294595
-0.275081
-0.254135
-0.232056
-0.209253
-0.186274
-0.163822
-0.142736
-0.123856
-0.107951
-0.0950361
-0.0854057
-0.0769317
-0.070472
-0.0679841
-0.090041
-0.0893231
-0.0885348
-0.0882875
-0.089263
-0.0921044
-0.0973575
-0.105408
-0.116423
-0.130323
-0.146775
-0.165241
-0.185063
-0.205565
-0.226137
-0.246275
-0.265588
-0.28378
-0.300618
-0.315915
-0.329514
-0.341278
-0.351087
-0.35884
-0.364452
-0.367855
-0.368999
-0.367849
-0.364409
-0.358643
-0.350558
-0.340197
-0.327609
-0.312857
-0.296029
-0.277248
-0.256683
-0.234569
-0.211234
-0.187127
-0.162852
-0.139167
-0.11696
-0.0970952
-0.0803364
-0.0666175
-0.0562801
-0.0470231
-0.0393427
-0.0346009
-0.0877745
-0.0872323
-0.0865716
-0.0859859
-0.085696
-0.086132
-0.088031
-0.092252
-0.0994753
-0.110018
-0.123801
-0.140409
-0.159195
-0.179402
-0.20028
-0.221165
-0.241507
-0.260877
-0.278943
-0.295447
-0.310186
-0.322993
-0.333732
-0.342292
-0.348581
-0.352528
-0.354079
-0.353199
-0.349882
-0.344107
-0.335864
-0.325194
-0.312146
-0.296781
-0.279187
-0.259491
-0.237874
-0.214588
-0.189991
-0.164569
-0.138971
-0.113997
-0.0905631
-0.0695414
-0.0516672
-0.0367957
-0.0253755
-0.0144056
-0.00499232
0.00397788
-0.0857373
-0.0854009
-0.0849377
-0.0841653
-0.0828111
-0.0809787
-0.0794734
-0.0795979
-0.0826139
-0.0893344
-0.100003
-0.114361
-0.13179
-0.151468
-0.172515
-0.194102
-0.215513
-0.236168
-0.255612
-0.273496
-0.289554
-0.303578
-0.315409
-0.32492
-0.332013
-0.336614
-0.338668
-0.338138
-0.335013
-0.329288
-0.320942
-0.310012
-0.29655
-0.28062
-0.262312
-0.241759
-0.219153
-0.194766
-0.168975
-0.142298
-0.115405
-0.0891132
-0.064334
-0.0419118
-0.0225358
-0.00601922
0.00707257
0.0208208
0.0317364
0.0475632
-0.0838082
-0.0837327
-0.0835253
-0.0826218
-0.0802897
-0.0763039
-0.0714573
-0.0674132
-0.0660078
-0.0686054
-0.0758352
-0.0876375
-0.103442
-0.122374
-0.143434
-0.165635
-0.188097
-0.210079
-0.230993
-0.250382
-0.267902
-0.283293
-0.296361
-0.30696
-0.314982
-0.32035
-0.323008
-0.32292
-0.320072
-0.314474
-0.306104
-0.294997
-0.28121
-0.264812
-0.245901
-0.224619
-0.201168
-0.175832
-0.149004
-0.121206
-0.0931023
-0.0654804
-0.0391944
-0.0150098
0.00647353
0.0254992
0.0414716
0.0594536
0.0717848
0.0982389
-0.0817929
-0.0820449
-0.0821262
-0.0810367
-0.077671
-0.0715839
-0.0635499
-0.0554956
-0.0497442
-0.0481891
-0.0518722
-0.0609688
-0.074985
-0.0930085
-0.113935
-0.136637
-0.160076
-0.183358
-0.205758
-0.226704
-0.245765
-0.262618
-0.277027
-0.28882
-0.297877
-0.304113
-0.307473
-0.307924
-0.305452
-0.300071
-0.291783
-0.280618
-0.266638
-0.249926
-0.230589
-0.208779
-0.184709
-0.158666
-0.131035
-0.102315
-0.0731171
-0.0441423
-0.0161235
0.0103221
0.03476
0.0576208
0.0785133
0.103284
0.120279
0.163318
-0.0794776
-0.0800853
-0.0804526
-0.0790128
-0.0744139
-0.0662037
-0.0552242
-0.0435634
-0.0338814
-0.0284958
-0.0288266
-0.0352966
-0.0475143
-0.0645575
-0.0852419
-0.108321
-0.13262
-0.157105
-0.180921
-0.203387
-0.223981
-0.242312
-0.258098
-0.271137
-0.28129
-0.288466
-0.292607
-0.293686
-0.291691
-0.286637
-0.278553
-0.267474
-0.253476
-0.236655
-0.21713
-0.195059
-0.170657
-0.144202
-0.116047
-0.086625
-0.0564405
-0.0260405
0.00404032
0.0334151
0.0619031
0.090254
0.118474
0.153654
0.183429
0.24811
-0.076966
-0.0778151
-0.0783135
-0.0762685
-0.0702192
-0.059791
-0.0461223
-0.0314644
-0.0185858
-0.0100485
-0.00755844
-0.0117531
-0.0223545
-0.0384628
-0.0588516
-0.0821915
-0.107199
-0.132728
-0.15781
-0.181665
-0.203688
-0.223423
-0.240538
-0.2548
-0.26605
-0.274187
-0.279153
-0.280922
-0.279494
-0.274886
-0.267137
-0.256297
-0.242463
-0.225751
-0.20629
-0.184238
-0.159797
-0.133216
-0.104787
-0.0748399
-0.0437188
-0.0117405
0.0208668
0.0540965
0.0881928
0.124347
0.162873
0.212528
0.260026
0.338589
-0.0755439
-0.0762423
-0.0763709
-0.0731471
-0.0652671
-0.0526144
-0.0365337
-0.0195352
-0.00439638
0.00638061
0.0108972
0.00837163
-0.000995532
-0.0163429
-0.0364465
-0.0599393
-0.0854721
-0.111818
-0.137928
-0.16294
-0.186181
-0.207137
-0.225432
-0.240802
-0.253068
-0.262118
-0.267893
-0.270368
-0.269553
-0.265478
-0.258201
-0.247763
-0.234252
-0.217812
-0.198594
-0.176757
-0.152475
-0.125949
-0.0973926
-0.0670059
-0.03493
-0.00117222
0.0344985
0.0727489
0.114746
0.162819
0.218037
0.289159
0.349521
0.424488
-0.0797167
-0.0790178
-0.0774098
-0.0718006
-0.0612534
-0.0460138
-0.0276862
-0.00887252
0.0076466
0.0196589
0.025399
0.0238652
0.0152448
0.000376607
-0.0195399
-0.0431358
-0.0690344
-0.095965
-0.122825
-0.148702
-0.172869
-0.194771
-0.213996
-0.230255
-0.243351
-0.253164
-0.25963
-0.262726
-0.262467
-0.258891
-0.252063
-0.242071
-0.228993
-0.212911
-0.193982
-0.172386
-0.148284
-0.121832
-0.0931605
-0.0623328
-0.0292645
0.0064088
0.045536
0.0898311
0.142212
0.207902
0.291696
0.403612
0.49587
0.603446
-0.103149
-0.09533
-0.086885
-0.0760969
-0.0617331
-0.0434001
-0.0227425
-0.00233921
0.0153614
0.0281482
0.0343306
0.0332213
0.0250111
0.0104903
-0.00918728
-0.0326871
-0.0586478
-0.0857949
-0.113006
-0.139341
-0.164042
-0.186521
-0.206341
-0.22319
-0.236857
-0.247209
-0.254177
-0.257736
-0.257901
-0.254712
-0.248236
-0.238559
-0.225778
-0.210004
-0.191361
-0.16999
-0.14604
-0.119636
-0.0908417
-0.0595945
-0.0255928
0.0119068
0.0544191
0.104864
0.168371
0.254432
0.375722
0.555763
0.767721
1.10787
-0.189985
-0.112231
-0.080644
-0.0714155
-0.058137
-0.0387614
-0.0170608
0.00395017
0.0217616
0.0341975
0.0398522
0.038242
0.029639
0.0148624
-0.00494094
-0.028473
-0.0544184
-0.0815416
-0.108747
-0.135109
-0.159874
-0.182454
-0.202405
-0.219409
-0.233247
-0.243781
-0.250936
-0.254686
-0.255041
-0.252042
-0.245754
-0.236262
-0.223664
-0.208071
-0.189603
-0.168392
-0.144574
-0.118242
-0.0894055
-0.0579035
-0.0232706
0.0155173
0.0604521
0.115276
0.186547
0.286608
0.435351
0.680408
1.0794
1.82856
)
;

boundaryField
{
    movingWall
    {
        type            zeroGradient;
    }
    fixedWalls
    {
        type            zeroGradient;
    }
    frontAndBack
    {
        type            empty;
    }
}


// ************************************************************************* //
