/*--------------------------------*- C++ -*----------------------------------*\
  =========                 |
  \\      /  F ield         | OpenFOAM: The Open Source CFD Toolbox
   \\    /   O peration     | Website:  https://openfoam.org
    \\  /    A nd           | Version:  7
     \\/     M anipulation  |
\*---------------------------------------------------------------------------*/
FoamFile
{
    version     2.0;
    format      ascii;
    class       surfaceScalarField;
    location    "1900";
    object      phi;
}
// * * * * * * * * * * * * * * * * * * * * * * * * * * * * * * * * * * * * * //

dimensions      [0 3 -1 0 0 0 0];

internalField   nonuniform List<scalar> 
4900
(
1.70056e-06
-1.70289e-06
6.22422e-06
-4.52368e-06
1.17166e-05
-5.49236e-06
1.65024e-05
-4.7858e-06
1.97497e-05
-3.24733e-06
2.13888e-05
-1.6391e-06
2.17673e-05
-3.78558e-07
2.12619e-05
5.05438e-07
2.00156e-05
1.24622e-06
1.78646e-05
2.15096e-06
1.44158e-05
3.44887e-06
9.18213e-06
5.2336e-06
1.6727e-06
7.50942e-06
-8.5645e-06
1.02372e-05
-2.18788e-05
1.33143e-05
-3.8433e-05
1.65542e-05
-5.81312e-05
1.96982e-05
-8.05377e-05
2.24065e-05
-0.000104814
2.42762e-05
-0.000129703
2.4889e-05
-0.000153577
2.38741e-05
-0.00017455
2.09728e-05
-0.00019064
1.60896e-05
-0.000199971
9.33191e-06
-0.000201026
1.05414e-06
-0.000192862
-8.16407e-06
-0.000175235
-1.76262e-05
-0.000148669
-2.65666e-05
-0.000114457
-3.42118e-05
-7.46263e-05
-3.98307e-05
-3.18286e-05
-4.27978e-05
1.08207e-05
-4.26492e-05
5.00647e-05
-3.92441e-05
8.3053e-05
-3.29883e-05
0.000107611
-2.45575e-05
0.000122474
-1.48635e-05
0.00012753
-5.05633e-06
0.000123862
3.66795e-06
0.000113468
1.0394e-05
9.87401e-05
1.47282e-05
8.20207e-05
1.67194e-05
6.52472e-05
1.67735e-05
4.97648e-05
1.54825e-05
3.63069e-05
1.34579e-05
2.51007e-05
1.12062e-05
1.6038e-05
9.06265e-06
8.89207e-06
7.14593e-06
3.59355e-06
5.29852e-06
5.04928e-07
3.08861e-06
5.04927e-07
4.47519e-06
-6.17809e-06
1.38489e-05
-1.38974e-05
2.43107e-05
-1.59542e-05
3.28989e-05
-1.3374e-05
3.80016e-05
-8.35008e-06
3.92284e-05
-2.86588e-06
3.68609e-05
1.98885e-06
3.12061e-05
6.16021e-06
2.21559e-05
1.02963e-05
9.08256e-06
1.52243e-05
-9.01103e-06
2.15424e-05
-3.32255e-05
2.9448e-05
-6.44604e-05
3.87443e-05
-0.000103155
4.8932e-05
-0.00014908
5.92395e-05
-0.000201176
6.86495e-05
-0.000257495
7.60171e-05
-0.000315327
8.02389e-05
-0.000371476
8.04249e-05
-0.000422606
7.60188e-05
-0.000465579
6.68474e-05
-0.000497716
5.31098e-05
-0.000516964
3.53369e-05
-0.000521981
1.43493e-05
-0.000512224
-8.70287e-06
-0.000487784
-3.26046e-05
-0.000449296
-5.61138e-05
-0.000397968
-7.78948e-05
-0.000335629
-9.65509e-05
-0.000264751
-0.000110709
-0.000188425
-0.000119124
-0.000110227
-0.000120847
-3.40408e-05
-0.000115431
3.60623e-05
-0.000103091
9.6392e-05
-8.48873e-05
0.000144133
-6.26048e-05
0.000177364
-3.82871e-05
0.000195296
-1.42635e-05
0.000198523
7.16706e-06
0.000189144
2.41069e-05
0.000170308
3.55548e-05
0.000145608
4.14743e-05
0.00011845
4.26397e-05
9.1602e-05
4.03062e-05
6.69289e-05
3.58793e-05
4.54177e-05
3.05739e-05
2.74581e-05
2.51055e-05
1.33342e-05
1.94224e-05
3.75511e-06
1.26677e-05
4.26003e-06
5.98734e-06
-1.21654e-05
1.73372e-05
-2.52474e-05
2.88016e-05
-2.74186e-05
3.68225e-05
-2.1395e-05
3.95383e-05
-1.10658e-05
3.63601e-05
3.12233e-07
2.72251e-05
1.11238e-05
1.1926e-05
2.14592e-05
-1.03017e-05
3.25241e-05
-4.0735e-05
4.56576e-05
-8.07334e-05
6.15407e-05
-0.00013122
7.99346e-05
-0.00019226
9.97846e-05
-0.00026275
0.000119422
-0.000340345
0.000136834
-0.000421687
0.000149992
-0.00050286
0.000157191
-0.000579912
0.000157291
-0.000649297
0.00014981
-0.000708154
0.000134876
-0.000754396
0.000113089
-0.000786665
8.53793e-05
-0.000804203
5.28747e-05
-0.000806659
1.68047e-05
-0.000793891
-2.14709e-05
-0.000765913
-6.05818e-05
-0.000723045
-9.89819e-05
-0.000666023
-0.000134917
-0.000596078
-0.000166496
-0.000515054
-0.000191733
-0.000425478
-0.000208699
-0.000330553
-0.000215772
-0.000234058
-0.000211925
-0.000140128
-0.000197022
-5.29935e-05
-0.000172021
2.338e-05
-0.000138978
8.60227e-05
-0.00010093
0.000133144
-6.13843e-05
0.000163776
-2.34654e-05
0.000178064
9.81922e-06
0.000177545
3.60732e-05
0.000165024
5.39955e-05
0.000144049
6.36151e-05
0.000118301
6.6054e-05
9.10408e-05
6.31393e-05
6.47424e-05
5.68722e-05
4.10641e-05
4.87838e-05
2.1207e-05
3.92795e-05
6.60685e-06
2.72678e-05
1.08669e-05
6.50872e-06
-1.86742e-05
1.75973e-05
-3.6336e-05
2.69529e-05
-3.67743e-05
3.07609e-05
-2.52029e-05
2.72151e-05
-7.52014e-06
1.56225e-05
1.19048e-05
-4.5522e-06
3.12985e-05
-3.43228e-05
5.12298e-05
-7.5212e-05
7.34133e-05
-0.000128697
9.91423e-05
-0.000195508
0.000128351
-0.000275065
0.000159492
-0.000365242
0.000189962
-0.000462554
0.000216733
-0.000562687
0.000236966
-0.000661193
0.000248498
-0.000754095
0.000250092
-0.000838254
0.00024145
-0.000911464
0.00022302
-0.000972315
0.000195727
-0.00101998
0.00016075
-0.00105396
0.000119364
-0.00107393
7.28396e-05
-0.00107954
2.24165e-05
-0.0010704
-3.06083e-05
-0.00104622
-8.47601e-05
-0.00100686
-0.000138346
-0.000952362
-0.000189413
-0.000883142
-0.000235716
-0.000800142
-0.000274733
-0.000705003
-0.000303838
-0.000600204
-0.000320571
-0.000489159
-0.000322971
-0.000376148
-0.000310034
-0.000266008
-0.000282161
-0.00016359
-0.000241396
-7.32084e-05
-0.000191312
1.86475e-06
-0.000136458
6.00554e-05
-8.1656e-05
0.00010106
-3.11857e-05
0.000125135
1.19986e-05
0.00013357
4.55601e-05
0.000128873
6.83127e-05
0.000114338
8.05882e-05
9.35504e-05
8.39271e-05
6.9871e-05
8.05517e-05
4.61162e-05
7.25386e-05
2.46361e-05
6.07595e-05
7.92821e-06
4.39758e-05
1.87951e-05
6.20573e-06
-2.48799e-05
1.48973e-05
-4.50276e-05
1.92099e-05
-4.10869e-05
1.54826e-05
-2.14757e-05
2.16853e-06
5.79387e-06
-2.16161e-05
3.56894e-05
-5.70479e-05
6.67303e-05
-0.000105853
0.000100035
-0.000169656
0.000137216
-0.000249019
0.000178505
-0.000342759
0.000222092
-0.000447861
0.000264593
-0.000559942
0.000302044
-0.000674062
0.000330853
-0.000785544
0.000348449
-0.000890567
0.00035352
-0.000986401
0.000345926
-0.00107133
0.000326382
-0.0011444
0.000296089
-0.00120511
0.00025644
-0.00125323
0.000208867
-0.00128861
0.000154746
-0.00131111
9.53329e-05
-0.00132053
3.18407e-05
-0.00131664
-3.45029e-05
-0.00129908
-0.00010232
-0.00126735
-0.000170077
-0.00122086
-0.000235901
-0.0011591
-0.000297469
-0.00108181
-0.000352022
-0.000989212
-0.000396442
-0.000882384
-0.000427398
-0.000763642
-0.000441713
-0.000636695
-0.00043698
-0.000506602
-0.000412254
-0.000379383
-0.000368615
-0.000261244
-0.000309451
-0.000157486
-0.000240215
-7.16347e-05
-0.000167508
-5.126e-06
-9.76944e-05
4.25822e-05
-3.57096e-05
7.27344e-05
1.54079e-05
8.69342e-05
5.41129e-05
8.77098e-05
7.98126e-05
7.82702e-05
9.33667e-05
6.21276e-05
9.66942e-05
4.27427e-05
9.19235e-05
2.34095e-05
8.00928e-05
7.60358e-06
5.97816e-05
2.63987e-05
4.89943e-06
-2.97794e-05
8.88418e-06
-4.90124e-05
5.29715e-06
-3.74999e-05
-8.91185e-06
-7.26675e-06
-3.50872e-05
3.19692e-05
-7.43914e-05
7.49936e-05
-0.000128543
0.000120882
-0.00019929
0.000170782
-0.000287192
0.000225118
-0.000390726
0.00028204
-0.000506249
0.000337614
-0.000628698
0.000387042
-0.000752626
0.000425972
-0.000873125
0.000451353
-0.000986392
0.000461716
-0.00108986
0.000456993
-0.00118206
0.000438121
-0.00126227
0.000406593
-0.00133029
0.000364111
-0.00138625
0.0003124
-0.00143049
0.000253103
-0.00146341
0.000187666
-0.00148541
0.000117331
-0.00149682
4.3257e-05
-0.00149778
-3.35416e-05
-0.00148802
-0.000112081
-0.00146689
-0.00019121
-0.00143337
-0.000269418
-0.00138611
-0.000344733
-0.00132351
-0.000414624
-0.0012441
-0.000475854
-0.001147
-0.000524494
-0.00103245
-0.000556263
-0.000902302
-0.000567128
-0.000760506
-0.00055405
-0.000613199
-0.000515923
-0.000468176
-0.000454474
-0.000333693
-0.000374698
-0.000216807
-0.000284393
-0.000121823
-0.000192678
-4.96998e-05
-0.000107833
1.20074e-06
-3.54926e-05
3.348e-05
2.18336e-05
4.96896e-05
6.36031e-05
5.27885e-05
9.02678e-05
4.61911e-05
0.000103292
3.36003e-05
0.000104514
1.88768e-05
9.48162e-05
6.11508e-06
7.25433e-05
3.25137e-05
2.27655e-06
-3.2056e-05
-9.08083e-07
-4.58278e-05
-1.49934e-05
-2.34146e-05
-4.21721e-05
1.99119e-05
-8.36271e-05
7.34241e-05
-0.000140792
0.000132159
-0.000215369
0.000195458
-0.000308036
0.000263449
-0.000417259
0.000334341
-0.000539094
0.000403876
-0.000667998
0.000466517
-0.000798035
0.000517079
-0.000923936
0.000551873
-0.00104168
0.000569097
-0.00114861
0.000568645
-0.00124325
0.00055163
-0.00132501
0.000519886
-0.00139398
0.000475559
-0.00145071
0.00042084
-0.00149613
0.000357818
-0.00153135
0.000288327
-0.00155752
0.000213833
-0.0015757
0.000135511
-0.00158674
5.43032e-05
-0.00159111
-2.9172e-05
-0.00158878
-0.000114418
-0.00157923
-0.000200755
-0.00156134
-0.000287307
-0.00153325
-0.000372827
-0.00149247
-0.0004554
-0.00143617
-0.000532155
-0.00136145
-0.000599209
-0.00126592
-0.000651795
-0.00114851
-0.000684542
-0.00101042
-0.000692141
-0.000855849
-0.000670491
-0.000692212
-0.000618111
-0.000529541
-0.00053737
-0.00037885
-0.000435084
-0.000249626
-0.000321902
-0.000147344
-0.000210115
-7.24603e-05
-0.000110376
-2.16698e-05
-2.89569e-05
9.34964e-06
3.25836e-05
2.44558e-05
7.51616e-05
2.74327e-05
0.000100315
2.22374e-05
0.00010971
1.30503e-05
0.000104003
4.21419e-06
8.13794e-05
3.67279e-05
-1.91406e-06
-3.01419e-05
-1.46448e-05
-3.30972e-05
-4.13087e-05
3.24923e-06
-8.31974e-05
6.18005e-05
-0.000141323
0.00013155
-0.000217084
0.00020792
-0.000311264
0.000289638
-0.000422583
0.000374768
-0.00054715
0.000458908
-0.000679164
0.00053589
-0.000812237
0.00059959
-0.000940607
0.000645449
-0.00105983
0.000671091
-0.00116693
0.000676202
-0.00126029
0.000662007
-0.00133937
0.000630712
-0.0014045
0.000585016
-0.00145668
0.000527739
-0.00149741
0.00046157
-0.00152847
0.00038887
-0.00155165
0.000311507
-0.00156866
0.000230843
-0.00158097
0.00014783
-0.00158969
6.30189e-05
-0.00159548
-2.33771e-05
-0.00159865
-0.000111254
-0.00159897
-0.000200437
-0.0015955
-0.000290771
-0.00158654
-0.000381787
-0.00156957
-0.000472377
-0.00154116
-0.00056056
-0.00149709
-0.00064328
-0.00143275
-0.000716134
-0.00134401
-0.00077328
-0.00122831
-0.000807842
-0.00108591
-0.000812894
-0.000921085
-0.000782936
-0.0007427
-0.000715755
-0.000563516
-0.000614268
-0.000397912
-0.000487506
-0.000258274
-0.000349753
-0.000151367
-0.000217283
-7.68327e-05
-0.000103491
-2.92048e-05
-1.50443e-05
-2.05509e-06
4.80119e-05
9.98689e-06
8.82727e-05
1.17386e-05
0.000107958
7.79568e-06
0.000107946
2.60223e-06
8.65729e-05
3.93302e-05
-7.74037e-06
-2.24016e-05
-3.18877e-05
-8.94995e-06
-7.24795e-05
4.3841e-05
-0.000129775
0.000119095
-0.000204595
0.00020637
-0.000297672
0.000300997
-0.000408115
0.000400081
-0.000532418
0.000499071
-0.00066481
0.0005913
-0.000798558
0.000669638
-0.00092735
0.000728382
-0.00104617
0.000764266
-0.00115159
0.000776513
-0.00124173
0.000766338
-0.00131602
0.000736301
-0.00137503
0.000689718
-0.00142017
0.000630162
-0.00145349
0.000561055
-0.0014773
0.000485385
-0.00149394
0.000405506
-0.00150551
0.000323075
-0.00151382
0.000239155
-0.0015203
0.000154308
-0.00152596
6.86822e-05
-0.00153155
-1.77911e-05
-0.00153751
-0.00010529
-0.00154389
-0.000194059
-0.00155026
-0.000284404
-0.00155563
-0.000376412
-0.0015582
-0.000469806
-0.00155499
-0.000563769
-0.00154172
-0.000656551
-0.00151292
-0.000744933
-0.00146236
-0.000823844
-0.00138392
-0.000886284
-0.00127312
-0.000923684
-0.00112907
-0.000926991
-0.000956127
-0.000888698
-0.00076482
-0.000805574
-0.00057103
-0.000681297
-0.000392968
-0.000527814
-0.000246173
-0.000364078
-0.000138383
-0.000211281
-6.7691e-05
-8.57365e-05
-2.58853e-05
6.2062e-06
-4.30315e-06
6.66906e-05
3.87588e-06
9.97789e-05
4.28518e-06
0.000107537
1.7156e-06
8.91425e-05
4.10458e-05
-1.49303e-05
-7.47135e-06
-5.16554e-05
2.77751e-05
-0.000106473
9.86588e-05
-0.00017871
0.000191332
-0.000268717
0.000296377
-0.000375954
0.000408234
-0.000497557
0.000521684
-0.00062813
0.000629644
-0.00076082
0.00072399
-0.000888807
0.000797625
-0.00100643
0.000846001
-0.00110968
0.000867522
-0.00119632
0.000863152
-0.00126569
0.00083571
-0.00131853
0.00078914
-0.00135666
0.000727848
-0.00138261
0.000656116
-0.00139922
0.000577663
-0.00140922
0.000495379
-0.00141497
0.000411258
-0.00141838
0.000326487
-0.00142088
0.000241653
-0.00142346
0.00015689
-0.00142683
7.20569e-05
-0.00143154
-1.30834e-05
-0.00143797
-9.8866e-05
-0.00144634
-0.000185684
-0.00145681
-0.000273938
-0.00146923
-0.000363987
-0.00148288
-0.00045616
-0.00149605
-0.000550594
-0.00150576
-0.000646849
-0.00150729
-0.000743401
-0.00149408
-0.000837054
-0.00145809
-0.000922273
-0.00139105
-0.000990729
-0.00128642
-0.00103161
-0.00114196
-0.00103316
-0.000962101
-0.000985433
-0.000759352
-0.000884046
-0.000553296
-0.000733871
-0.000366414
-0.000550961
-0.000217182
-0.000360512
-0.000113328
-0.000189591
-5.01773e-05
-5.6944e-05
-1.63299e-05
3.28432e-05
-1.28436e-06
8.47333e-05
2.75114e-06
0.000103501
1.6491e-06
9.02445e-05
4.26949e-05
-2.29851e-05
1.55137e-05
-7.24388e-05
7.72288e-05
-0.000140698
0.000166918
-0.00022625
0.000276884
-0.000328573
0.0003987
-0.000445542
0.000525203
-0.000572493
0.000648634
-0.000702791
0.000759942
-0.000829279
0.000850478
-0.00094565
0.000913995
-0.00104724
0.000947591
-0.0011313
0.000951587
-0.00119698
0.000928826
-0.00124508
0.000883808
-0.00127775
0.000821812
-0.001298
0.000748098
-0.00130913
0.000667247
-0.00131425
0.000582783
-0.00131594
0.000497067
-0.00131611
0.000411425
-0.00131604
0.000326417
-0.0013165
0.000242116
-0.00131793
0.00015832
-0.0013206
7.47315e-05
-0.00132473
-8.96161e-06
-0.00133051
-9.30795e-05
-0.00133827
-0.000177921
-0.00134845
-0.000263764
-0.00136145
-0.000350983
-0.00137752
-0.000440087
-0.00139647
-0.000531646
-0.00141718
-0.000626138
-0.00143694
-0.00072364
-0.00145079
-0.000823204
-0.00145122
-0.000921844
-0.00142851
-0.00101344
-0.00137205
-0.00108807
-0.00127295
-0.00113226
-0.00112751
-0.00113087
-0.000940611
-0.00107095
-0.000727443
-0.000947039
-0.000512006
-0.000766398
-0.000321271
-0.000551248
-0.000175838
-0.000335024
-8.16079e-05
-0.000151175
-2.96102e-05
-1.91544e-05
-5.38954e-06
6.05126e-05
2.49512e-06
9.56167e-05
2.18191e-06
9.05577e-05
4.48768e-05
-3.11631e-05
4.66768e-05
-9.24255e-05
0.000138491
-0.000172419
0.000246911
-0.000268672
0.000373138
-0.00037953
0.000509558
-0.000501311
0.000646983
-0.000628021
0.000775345
-0.000752487
0.000884407
-0.000867863
0.000965855
-0.000968763
0.0010149
-0.0010518
0.00103063
-0.00111571
0.0010155
-0.00116122
0.000974333
-0.00119066
0.000913247
-0.00120742
0.000838569
-0.00121524
0.00075592
-0.00121761
0.000669616
-0.00121732
0.00058249
-0.00121629
0.000496046
-0.00121568
0.000410815
-0.00121602
0.000326748
-0.00121742
0.000243525
-0.00121987
0.000160765
-0.00122326
7.81257e-05
-0.00122756
-4.6697e-06
-0.00123282
-8.78168e-05
-0.00123929
-0.000171452
-0.00124737
-0.000255687
-0.00125762
-0.00034073
-0.00127078
-0.000426923
-0.00128763
-0.0005148
-0.00130861
-0.000605154
-0.00133328
-0.000698971
-0.00135947
-0.00079702
-0.00138232
-0.000898994
-0.00139354
-0.00100222
-0.00138157
-0.00110005
-0.00133323
-0.0011806
-0.0012372
-0.0012269
-0.00108862
-0.00121952
-0.000893471
-0.00114219
-0.000670676
-0.000989193
-0.000449626
-0.000772298
-0.000261709
-0.000522941
-0.000127791
-0.000285093
-4.91488e-05
-9.77964e-05
-1.12712e-05
2.26349e-05
2.16087e-06
8.21847e-05
2.88175e-06
8.98368e-05
4.77585e-05
-3.85892e-05
8.52659e-05
-0.000109887
0.000209789
-0.000199149
0.000336174
-0.000302837
0.000476825
-0.000418094
0.000624815
-0.000539965
0.000768855
-0.000661708
0.000897088
-0.000776207
0.000998906
-0.000877378
0.00106703
-0.000961056
0.00109857
-0.00102535
0.00109492
-0.00107063
0.00106078
-0.00109919
0.00100289
-0.00111465
0.000928705
-0.00112112
0.000845047
-0.00112248
0.000757271
-0.00112174
0.000668881
-0.00112093
0.000581676
-0.00112109
0.000496207
-0.00112257
0.000412294
-0.00112528
0.00032946
-0.00112895
0.0002472
-0.0011333
0.000165108
-0.00113807
8.29004e-05
-0.00114314
3.99811e-07
-0.00114849
-8.24664e-05
-0.00115422
-0.000165718
-0.00116057
-0.000249344
-0.00116794
-0.000333358
-0.00117702
-0.000417843
-0.00118876
-0.000503063
-0.00120429
-0.000589617
-0.00122472
-0.000678543
-0.00125045
-0.000771295
-0.00128005
-0.000869387
-0.00130887
-0.000973403
-0.0013278
-0.00108112
-0.00132334
-0.00118506
-0.00127963
-0.00127061
-0.00118288
-0.00131627
-0.00102759
-0.00129748
-0.000822194
-0.00119459
-0.000591069
-0.00100342
-0.000369991
-0.000744019
-0.000193735
-0.000461349
-7.99896e-05
-0.000211542
-2.1945e-05
-3.54096e-05
2.50099e-07
5.99896e-05
3.27395e-06
8.6813e-05
5.10325e-05
-4.44958e-05
0.000129762
-0.000123392
0.000288685
-0.000218973
0.000431754
-0.000326563
0.000584416
-0.000442226
0.000740478
-0.00056015
0.000886779
-0.000673387
0.00101033
-0.000775343
0.00110086
-0.00086101
0.00115269
-0.000927642
0.00116521
-0.000974952
0.00114223
-0.00100489
0.00109072
-0.00102106
0.00101906
-0.00102783
0.000935471
-0.0010294
0.000846619
-0.00102912
0.000756991
-0.00102915
0.000668914
-0.00103055
0.000583071
-0.00103353
0.000499191
-0.00103787
0.00041663
-0.00104314
0.000334736
-0.00104896
0.000253016
-0.001055
0.000171154
-0.00106108
8.89743e-05
-0.00106708
6.40146e-06
-0.00107298
-7.65683e-05
-0.00107879
-0.000159905
-0.00108459
-0.000243544
-0.00109055
-0.000327399
-0.00109701
-0.000411385
-0.00110457
-0.000495499
-0.00111425
-0.000579937
-0.00112752
-0.000665279
-0.00114607
-0.000752743
-0.00117113
-0.000844324
-0.00120208
-0.000942452
-0.00123453
-0.00104867
-0.00125849
-0.00116109
-0.00125818
-0.00127093
-0.00121466
-0.00135979
-0.00111204
-0.00140009
-0.000945539
-0.0013611
-0.000728134
-0.00122083
-0.000491772
-0.000980381
-0.000279079
-0.000674042
-0.00012536
-0.00036526
-3.96766e-05
-0.000121093
-4.38995e-06
2.4703e-05
3.03267e-06
7.93904e-05
5.40652e-05
-4.83121e-05
0.000178074
-0.000131958
0.000372331
-0.000230708
0.000530505
-0.000338762
0.000692469
-0.000451338
0.000853054
-0.000562211
0.000997652
-0.000664674
0.00111279
-0.000752982
0.00118917
-0.000823393
0.0012231
-0.000874662
0.00121647
-0.000908028
0.0011756
-0.000926748
0.00110944
-0.00093522
0.00102754
-0.00093794
0.000938191
-0.000938608
0.000847286
-0.000939654
0.000758037
-0.000942235
0.000671495
-0.000946551
0.000587387
-0.00095227
0.00050491
-0.000958886
0.000423245
-0.000965937
0.000341787
-0.000973097
0.000260176
-0.000980178
0.000178235
-0.000987097
9.58935e-05
-0.000993836
1.314e-05
-0.00100039
-7.00099e-05
-0.00100677
-0.000153525
-0.00101297
-0.000237353
-0.00101896
-0.000321404
-0.00102479
-0.000405559
-0.00103061
-0.00048967
-0.00103693
-0.000573624
-0.00104472
-0.000657492
-0.00105563
-0.00074183
-0.00107189
-0.000828057
-0.0010956
-0.000918743
-0.00112697
-0.00101731
-0.00116167
-0.00112639
-0.00118835
-0.00124425
-0.00118837
-0.00135977
-0.00113968
-0.00144878
-0.00102509
-0.00147568
-0.000842659
-0.00140326
-0.000613021
-0.00121002
-0.000377934
-0.000909128
-0.000185677
-0.000557517
-6.59166e-05
-0.000240854
-1.23343e-05
-2.88793e-05
2.04225e-06
6.50139e-05
5.61074e-05
-4.97081e-05
0.000227782
-0.000135092
0.000457715
-0.00023393
0.000629343
-0.000339364
0.000797902
-0.000446057
0.000959747
-0.000547768
0.00109936
-0.000638362
0.00120338
-0.000713142
0.00126395
-0.000769698
0.00127966
-0.000808202
0.00125498
-0.000831168
0.00119856
-0.000842705
0.00112097
-0.000847431
0.00103226
-0.000849412
0.000940172
-0.000851463
0.000849338
-0.000854996
0.00076157
-0.000860301
0.0006768
-0.00086702
0.000594106
-0.000874582
0.000512472
-0.000882475
0.000431139
-0.000890363
0.000349675
-0.000898079
0.000267892
-0.000905582
0.000185738
-0.000912903
0.000103214
-0.00092009
2.03269e-05
-0.000927185
-6.29145e-05
-0.000934204
-0.000146506
-0.000941121
-0.000230435
-0.000947863
-0.000314662
-0.000954316
-0.000399107
-0.000960369
-0.000483617
-0.000966018
-0.000567975
-0.00097155
-0.00065196
-0.000977858
-0.000735522
-0.000986758
-0.000819157
-0.00100102
-0.000904481
-0.00102355
-0.000994776
-0.00105522
-0.00109472
-0.00109137
-0.0012081
-0.00111858
-0.00133256
-0.00111457
-0.00145279
-0.00105414
-0.00153611
-0.000920642
-0.00153675
-0.000718622
-0.00141204
-0.000480261
-0.00114749
-0.000258245
-0.000779534
-0.000101487
-0.000397612
-2.37466e-05
-0.000106619
3.0948e-07
4.09578e-05
5.64169e-05
-4.85972e-05
0.000276379
-0.000132766
0.000541884
-0.000228874
0.000725451
-0.000329115
0.000898143
-0.000427884
0.00105852
-0.000519236
0.00119071
-0.000597829
0.00128198
-0.000660086
0.00132621
-0.000704862
0.00132444
-0.000733529
0.00128364
-0.000749483
0.00121452
-0.000757171
0.00112866
-0.000760923
0.00103601
-0.000764015
0.000943265
-0.000768275
0.000853598
-0.000774235
0.00076753
-0.000781609
0.000684173
-0.000789798
0.000602295
-0.000798245
0.000520919
-0.000806587
0.000439481
-0.000814664
0.000357752
-0.000822465
0.000275692
-0.000830054
0.000193328
-0.000837523
0.000110683
-0.000844957
2.77602e-05
-0.000852418
-5.54535e-05
-0.000859936
-0.000138988
-0.000867502
-0.000222868
-0.000875058
-0.000307106
-0.00088248
-0.000391685
-0.000889574
-0.000476523
-0.000896097
-0.000561452
-0.000901861
-0.000646196
-0.000906975
-0.000730408
-0.000912248
-0.000813885
-0.000919652
-0.000897077
-0.000932496
-0.000981932
-0.000954514
-0.00107271
-0.000987011
-0.0011756
-0.0010242
-0.00129538
-0.00104923
-0.00142776
-0.00103536
-0.00154999
-0.00095521
-0.0016169
-0.000796157
-0.00157109
-0.000574337
-0.00136931
-0.000337231
-0.00101664
-0.000146123
-0.00058872
-3.90034e-05
-0.000213739
-2.30559e-06
4.26e-06
5.41113e-05
-4.50984e-05
0.000321478
-0.00012532
0.000622105
-0.000216268
0.000816399
-0.000309314
0.00099119
-0.000398822
0.00114802
-0.000479375
0.00127127
-0.000546527
0.00134913
-0.000597787
0.00137747
-0.000633097
0.00135975
-0.000654703
0.00130525
-0.000666446
0.00122626
-0.000672651
0.00113487
-0.000677012
0.00104038
-0.000681896
0.000948148
-0.000688252
0.000859954
-0.000696002
0.000775281
-0.00070459
0.00069276
-0.000713418
0.000611124
-0.000722082
0.000529583
-0.000730407
0.000447805
-0.000738387
0.000365732
-0.000746109
0.000283415
-0.000753689
0.000200908
-0.000761236
0.00011823
-0.000768836
3.53599e-05
-0.000776552
-4.77377e-05
-0.000784418
-0.000131122
-0.000792443
-0.000214843
-0.000800604
-0.000298946
-0.00080882
-0.000383468
-0.000816936
-0.000468407
-0.000824693
-0.000553695
-0.000831744
-0.000639145
-0.00083775
-0.000724402
-0.000842651
-0.000808984
-0.00084719
-0.000892538
-0.000853593
-0.000975529
-0.000865855
-0.00106044
-0.000888495
-0.00115296
-0.000922647
-0.00126123
-0.000960018
-0.00139039
-0.000978738
-0.00153127
-0.000947195
-0.00164844
-0.000838414
-0.00167987
-0.000649546
-0.00155818
-0.000414652
-0.00125153
-0.000197777
-0.000805594
-5.87647e-05
-0.000352751
-5.87503e-06
-4.86297e-05
4.82362e-05
-3.94843e-05
0.000360962
-0.000113354
0.000695975
-0.000197154
0.000900198
-0.000281553
0.00107559
-0.000361063
0.00122753
-0.00043093
0.00134113
-0.00048762
0.00140582
-0.000529605
0.00141945
-0.000557656
0.0013878
-0.000574527
0.00132212
-0.000584099
0.00123583
-0.000590241
0.00114101
-0.000595858
0.00104599
-0.00060247
0.00095476
-0.000610378
0.000867862
-0.000619176
0.000784079
-0.000628268
0.000701852
-0.000637194
0.00062005
-0.000645736
0.000538125
-0.000653875
0.000455944
-0.000661705
0.000373563
-0.000669356
0.000291066
-0.000676953
0.000208504
-0.000684594
0.000125872
-0.000692353
4.31184e-05
-0.000700282
-3.98084e-05
-0.000708412
-0.000122992
-0.00071676
-0.000206494
-0.000725324
-0.000290383
-0.000734067
-0.000374725
-0.0007429
-0.000459574
-0.000751647
-0.000544949
-0.000760005
-0.000630787
-0.000767535
-0.000716873
-0.000773754
-0.000802765
-0.000778475
-0.000887816
-0.00078249
-0.000971514
-0.000788449
-0.00105448
-0.000801185
-0.00114022
-0.000825846
-0.00123657
-0.000862377
-0.00135386
-0.000897886
-0.00149576
-0.000903621
-0.00164271
-0.000844176
-0.00173932
-0.000698626
-0.00170373
-0.000482277
-0.00146788
-0.000252363
-0.00103551
-8.31779e-05
-0.000521937
-1.03789e-05
-0.000121429
3.78573e-05
-3.21266e-05
0.000393088
-9.76151e-05
0.000761463
-0.000172717
0.0009753
-0.000247501
0.00115037
-0.000316731
0.00129676
-0.000376383
0.00140079
-0.000423773
0.00145321
-0.000458151
0.00145383
-0.000480829
0.00141047
-0.000494721
0.00133601
-0.000503426
0.00124454
-0.000510174
0.00114776
-0.000517086
0.0010529
-0.000525006
0.00096268
-0.000533837
0.000876693
-0.000543069
0.000793311
-0.000552202
0.000710985
-0.00056095
0.000628798
-0.000569254
0.000546428
-0.000577196
0.000463886
-0.000584915
0.000381282
-0.000592547
0.000298699
-0.000600203
0.000216159
-0.000607964
0.000133633
-0.000615891
5.10455e-05
-0.000624028
-3.16722e-05
-0.000632397
-0.000114622
-0.000641014
-0.000197877
-0.000649883
-0.000281513
-0.000658992
-0.000365615
-0.000668299
-0.000450267
-0.000677706
-0.000535541
-0.000687019
-0.000621473
-0.00069589
-0.000708002
-0.000703789
-0.000794866
-0.000710117
-0.000881488
-0.000714621
-0.000967011
-0.000718284
-0.00105082
-0.000724472
-0.00113404
-0.000739091
-0.00122195
-0.000767419
-0.00132553
-0.000806203
-0.00145697
-0.000835046
-0.00161386
-0.000817452
-0.00175691
-0.000718688
-0.00180249
-0.000533492
-0.00165308
-0.000304597
-0.0012644
-0.000111231
-0.000715302
-1.58204e-05
-0.00021684
2.2037e-05
-2.34491e-05
0.000416538
-7.89088e-05
0.000816923
-0.000144156
0.00104055
-0.000208745
0.00121496
-0.000267733
0.00135575
-0.00031782
0.00145087
-0.000357071
0.00149246
-0.000385302
0.00148206
-0.000404079
0.00142925
-0.000416186
0.00134812
-0.000424733
0.00125308
-0.000432251
0.00115527
-0.000440181
0.00106083
-0.000448898
0.000971397
-0.000458116
0.000885911
-0.000467359
0.000802554
-0.000476276
0.000719902
-0.000484738
0.00063726
-0.000492791
0.000554481
-0.00050057
0.000471665
-0.000508219
0.000388931
-0.000515861
0.000306341
-0.000523589
0.000223888
-0.000531474
0.000141519
-0.000539568
5.91391e-05
-0.00054791
-2.33301e-05
-0.000556518
-0.000106015
-0.000565402
-0.000188993
-0.000574564
-0.00027235
-0.000583998
-0.000356182
-0.00059368
-0.000440585
-0.000603561
-0.00052566
-0.000613534
-0.000611501
-0.000623377
-0.000698159
-0.000632688
-0.000785555
-0.000640843
-0.000873333
-0.000647135
-0.000960719
-0.000651348
-0.00104661
-0.000654948
-0.00113044
-0.000662426
-0.00121447
-0.000680806
-0.00130715
-0.000714145
-0.00142363
-0.000752722
-0.00157529
-0.00076568
-0.00174395
-0.000710996
-0.00185718
-0.000564451
-0.00179963
-0.000349434
-0.00147942
-0.000140929
-0.000923808
-2.20973e-05
-0.000335671
-6.03165e-08
-1.38927e-05
0.00043043
-5.80334e-05
0.000861064
-0.000112597
0.00109511
-0.000166701
0.00126907
-0.000215673
0.00140473
-0.000256892
0.00149209
-0.000289042
0.00152461
-0.000312297
0.00150532
-0.000328231
0.00144518
-0.000339281
0.00135917
-0.000347957
0.00126176
-0.000356122
0.00116344
-0.000364684
0.0010694
-0.000373733
0.000980445
-0.000382939
0.000895117
-0.000391933
0.000811548
-0.000400509
0.000728478
-0.000408651
0.000645402
-0.000416466
0.000562297
-0.0004241
0.000479299
-0.000431688
0.000396519
-0.000439334
0.000313987
-0.000447117
0.000231672
-0.000455104
0.000149506
-0.000463347
6.73816e-05
-0.000471886
-1.47906e-05
-0.000480736
-9.7165e-05
-0.000489903
-0.000179826
-0.000499385
-0.000262869
-0.000509168
-0.000346398
-0.000519235
-0.000430518
-0.000529552
-0.000515342
-0.000540061
-0.000600993
-0.000550633
-0.000687587
-0.00056101
-0.000775178
-0.00057071
-0.000863632
-0.000578999
-0.00095243
-0.000585108
-0.0010405
-0.000589052
-0.00112649
-0.000593201
-0.00121032
-0.000603635
-0.00129672
-0.000628022
-0.00139925
-0.000666286
-0.00153702
-0.000697616
-0.00171262
-0.000679899
-0.00187489
-0.000574323
-0.0019052
-0.000383162
-0.00167058
-0.000169692
-0.00113728
-2.94207e-05
-0.000475942
-2.9481e-05
-3.87741e-06
0.000434308
-3.57533e-05
0.00089294
-7.90482e-05
0.00113841
-0.000122569
0.00131259
-0.000161839
0.001444
-0.000194835
0.00152509
-0.000220731
0.0015505
-0.000239878
0.00152446
-0.000253662
0.00145897
-0.000264035
0.00136954
-0.000272867
0.00127059
-0.000281432
0.00117201
-0.000290247
0.00107821
-0.000299259
0.000989457
-0.000308182
0.00090404
-0.000316771
0.000820138
-0.000324942
0.000736648
-0.000332749
0.000653209
-0.000340323
0.00056987
-0.000347802
0.000486778
-0.000355305
0.000404022
-0.000362922
0.000321604
-0.000370724
0.000239474
-0.000378776
0.000157557
-0.000387138
7.5744e-05
-0.000395857
-6.07098e-06
-0.00040495
-8.80725e-05
-0.000414419
-0.000170357
-0.000424252
-0.000253036
-0.000434433
-0.000336217
-0.000444937
-0.000420014
-0.000455737
-0.000504542
-0.000466791
-0.000589939
-0.000478022
-0.000676356
-0.00048927
-0.00076393
-0.00050021
-0.000852693
-0.000510258
-0.000942382
-0.000518562
-0.00103219
-0.000524388
-0.00112067
-0.000528322
-0.00120638
-0.000534283
-0.00129076
-0.000550209
-0.00138332
-0.000582454
-0.00150478
-0.000621521
-0.00167356
-0.000631432
-0.00186498
-0.000564835
-0.0019718
-0.000403894
-0.00183152
-0.000195078
-0.00134609
-3.7854e-05
-0.000633166
-6.73351e-05
6.05962e-06
0.000428248
-1.27374e-05
0.000911737
-4.44008e-05
0.00117007
-7.73433e-05
0.00134553
-0.00010723
0.00147388
-0.000132535
0.00155039
-0.000152806
0.00157078
-0.000168428
0.00154009
-0.000180467
0.00147101
-0.000190304
0.00137938
-0.000199184
0.00127947
-0.000207875
0.0011807
-0.000216623
0.00108696
-0.000225327
0.000998161
-0.000233786
0.000912499
-0.000241874
0.000828226
-0.000249593
0.000744368
-0.00025704
0.000660657
-0.000264346
0.000577176
-0.000271635
0.000494068
-0.00027901
0.000411397
-0.000286552
0.000329146
-0.000294328
0.000247249
-0.000302402
0.000165631
-0.000310848
8.41905e-05
-0.000319723
2.80373e-06
-0.000329051
-7.87439e-05
-0.000338833
-0.000160575
-0.000349049
-0.00024282
-0.000359674
-0.000325592
-0.00037068
-0.000409007
-0.000382038
-0.000493185
-0.00039371
-0.000578267
-0.000405641
-0.000664424
-0.000417727
-0.000751844
-0.000429752
-0.000840667
-0.000441298
-0.000930837
-0.000451646
-0.00102185
-0.000459862
-0.00111245
-0.000465466
-0.00120078
-0.00047022
-0.001286
-0.000480321
-0.00137322
-0.000504831
-0.00148027
-0.000543995
-0.00163439
-0.000571979
-0.001837
-0.000539402
-0.00200438
-0.000411527
-0.0019594
-0.000215322
-0.0015423
-4.69726e-05
-0.000801516
-0.000114308