/*--------------------------------*- C++ -*----------------------------------*\
  =========                 |
  \\      /  F ield         | OpenFOAM: The Open Source CFD Toolbox
   \\    /   O peration     | Website:  https://openfoam.org
    \\  /    A nd           | Version:  7
     \\/     M anipulation  |
\*---------------------------------------------------------------------------*/
FoamFile
{
    version     2.0;
    format      ascii;
    class       volVectorField;
    location    "1900";
    object      U;
}
// * * * * * * * * * * * * * * * * * * * * * * * * * * * * * * * * * * * * * //

dimensions      [0 1 -1 0 0 0 0];

internalField   nonuniform List<vector> 
2500
(
(0.000207876 -0.000200781 0)
(0.0018667 -0.000570922 0)
(0.00447442 -0.000697693 0)
(0.00716316 -0.00060007 0)
(0.00922919 -0.000418974 0)
(0.0104505 -0.000264321 0)
(0.0109303 -0.000187989 0)
(0.0108813 -0.000185859 0)
(0.0104509 -0.000219844 0)
(0.0096346 -0.000245412 0)
(0.00828323 -0.000228674 0)
(0.0061645 -0.000150779 0)
(0.00302114 -2.68115e-06 0)
(-0.00139055 0.000220999 0)
(-0.00727516 0.000523398 0)
(-0.0147652 0.000908052 0)
(-0.0238831 0.00137496 0)
(-0.0344988 0.0019125 0)
(-0.0462945 0.00248744 0)
(-0.0587441 0.0030375 0)
(-0.0711193 0.00347291 0)
(-0.0825265 0.0036891 0)
(-0.0919766 0.00358766 0)
(-0.0984871 0.0031034 0)
(-0.101193 0.00223062 0)
(-0.0994201 0.00102744 0)
(-0.0929011 -0.000375323 0)
(-0.0817089 -0.00181216 0)
(-0.0663115 -0.00310953 0)
(-0.0475661 -0.00410045 0)
(-0.0266918 -0.00463993 0)
(-0.00517025 -0.00460538 0)
(0.0154726 -0.00393487 0)
(0.0337667 -0.00278348 0)
(0.0484052 -0.00137044 0)
(0.0584329 0.00012654 0)
(0.0634699 0.00149764 0)
(0.0637292 0.0025348 0)
(0.0600174 0.00311221 0)
(0.0534999 0.00322499 0)
(0.0454086 0.00298647 0)
(0.0368468 0.00254955 0)
(0.0286511 0.00204863 0)
(0.0213414 0.00157427 0)
(0.0151473 0.00117417 0)
(0.0100797 0.000863366 0)
(0.00602882 0.000631199 0)
(0.002901 0.00043599 0)
(0.000795267 0.000192765 0)
(-8.20372e-05 -8.74386e-05 0)
(0.000566402 -0.00181773 0)
(0.00437514 -0.00431586 0)
(0.00958216 -0.00511656 0)
(0.0146039 -0.00444049 0)
(0.0181615 -0.00299825 0)
(0.0197685 -0.00145778 0)
(0.0194632 -0.000192468 0)
(0.017457 0.000765583 0)
(0.013835 0.00162516 0)
(0.00840838 0.00266497 0)
(0.000740402 0.00410229 0)
(-0.00972509 0.00604307 0)
(-0.0235171 0.00849148 0)
(-0.0409982 0.0113805 0)
(-0.0622484 0.0145717 0)
(-0.0869605 0.0178394 0)
(-0.114377 0.0208632 0)
(-0.143303 0.0232509 0)
(-0.172218 0.0245938 0)
(-0.199439 0.0245348 0)
(-0.223312 0.0228267 0)
(-0.242356 0.01937 0)
(-0.255371 0.0142288 0)
(-0.261502 0.00763584 0)
(-0.260274 -1.89393e-05 0)
(-0.251621 -0.00821947 0)
(-0.235733 -0.0163955 0)
(-0.213061 -0.0239931 0)
(-0.184374 -0.0304488 0)
(-0.150757 -0.035229 0)
(-0.113621 -0.0378719 0)
(-0.074664 -0.0380338 0)
(-0.035797 -0.0355699 0)
(0.00104681 -0.0306635 0)
(0.0340225 -0.0238136 0)
(0.0614533 -0.015746 0)
(0.0820219 -0.00728172 0)
(0.0950074 0.000696556 0)
(0.100275 0.00734559 0)
(0.0984399 0.0120833 0)
(0.0909568 0.0147125 0)
(0.0796122 0.0154351 0)
(0.0662321 0.0147156 0)
(0.0524142 0.0131077 0)
(0.0393366 0.0111171 0)
(0.0276934 0.00911023 0)
(0.0177731 0.00724867 0)
(0.00968201 0.00543451 0)
(0.00372611 0.00334308 0)
(0.000329271 0.000918389 0)
(0.00078583 -0.00449493 0)
(0.00568871 -0.00969442 0)
(0.0117182 -0.0109167 0)
(0.016907 -0.00900555 0)
(0.0197646 -0.00542399 0)
(0.0197139 -0.00146988 0)
(0.0166726 0.00215238 0)
(0.0106386 0.00542274 0)
(0.00138669 0.00878025 0)
(-0.0116148 0.0127912 0)
(-0.0290787 0.0178418 0)
(-0.0516328 0.0240091 0)
(-0.0795825 0.0310818 0)
(-0.112698 0.038596 0)
(-0.150107 0.0458719 0)
(-0.190332 0.0520907 0)
(-0.231487 0.0564288 0)
(-0.271535 0.0581998 0)
(-0.308553 0.0569576 0)
(-0.340915 0.0525367 0)
(-0.367384 0.0450356 0)
(-0.387113 0.034769 0)
(-0.399589 0.0222105 0)
(-0.404556 0.00794204 0)
(-0.401937 -0.00738763 0)
(-0.391702 -0.0230984 0)
(-0.373893 -0.0384773 0)
(-0.348782 -0.052733 0)
(-0.316854 -0.0650318 0)
(-0.27887 -0.0745378 0)
(-0.235926 -0.0804763 0)
(-0.189459 -0.082235 0)
(-0.14123 -0.0794847 0)
(-0.0932395 -0.0722827 0)
(-0.0476008 -0.0611768 0)
(-0.00630904 -0.0471716 0)
(0.0289129 -0.031559 0)
(0.0567076 -0.0157863 0)
(0.0763837 -0.00114343 0)
(0.0876675 0.0111731 0)
(0.0908222 0.0202558 0)
(0.0871017 0.0257412 0)
(0.0782113 0.0278619 0)
(0.0660409 0.0273074 0)
(0.0523907 0.0249766 0)
(0.0387217 0.0217248 0)
(0.026034 0.0181221 0)
(0.0149679 0.0142391 0)
(0.00625643 0.00958288 0)
(0.000705201 0.00358658 0)
(0.000917696 -0.00772663 0)
(0.00606861 -0.015592 0)
(0.0115467 -0.0165377 0)
(0.0151648 -0.0124518 0)
(0.0154194 -0.00573402 0)
(0.0117519 0.00169895 0)
(0.00393788 0.00894158 0)
(-0.00837143 0.0161022 0)
(-0.0258411 0.0239436 0)
(-0.0492866 0.0332168 0)
(-0.0793452 0.0442018 0)
(-0.116115 0.0565579 0)
(-0.158928 0.0694093 0)
(-0.206332 0.0815335 0)
(-0.256288 0.0916018 0)
(-0.306512 0.0984285 0)
(-0.354831 0.101165 0)
(-0.399436 0.0993898 0)
(-0.438995 0.0930903 0)
(-0.472632 0.0825675 0)
(-0.499817 0.0683186 0)
(-0.520253 0.0509428 0)
(-0.53375 0.0310748 0)
(-0.540145 0.00934834 0)
(-0.539268 -0.0135827 0)
(-0.530938 -0.0369839 0)
(-0.515036 -0.059999 0)
(-0.491533 -0.0816668 0)
(-0.460525 -0.10093 0)
(-0.422334 -0.116645 0)
(-0.377592 -0.127667 0)
(-0.327309 -0.132996 0)
(-0.272951 -0.131947 0)
(-0.216456 -0.124313 0)
(-0.160143 -0.110523 0)
(-0.106493 -0.0916908 0)
(-0.0578517 -0.0695171 0)
(-0.0160899 -0.0460048 0)
(0.0175981 -0.0230674 0)
(0.0426227 -0.00244764 0)
(0.0589215 0.0146179 0)
(0.0667549 0.0272057 0)
(0.0672343 0.0349412 0)
(0.0619154 0.0381662 0)
(0.0525878 0.037785 0)
(0.0410432 0.0349332 0)
(0.0288322 0.0305681 0)
(0.0171901 0.0250317 0)
(0.00742144 0.0177399 0)
(0.000862121 0.00736579 0)
(0.000999776 -0.0110179 0)
(0.00561122 -0.0208276 0)
(0.00922982 -0.0203486 0)
(0.00967953 -0.0129027 0)
(0.00562209 -0.00193707 0)
(-0.00346121 0.0101252 0)
(-0.0180349 0.0223834 0)
(-0.0388543 0.035281 0)
(-0.0668535 0.0497578 0)
(-0.102684 0.0663397 0)
(-0.146246 0.0846544 0)
(-0.196463 0.103471 0)
(-0.251397 0.12106 0)
(-0.3086 0.135627 0)
(-0.365569 0.145686 0)
(-0.420123 0.150286 0)
(-0.470616 0.149058 0)
(-0.515964 0.142129 0)
(-0.555541 0.129955 0)
(-0.589015 0.11315 0)
(-0.616225 0.0923851 0)
(-0.637097 0.0683308 0)
(-0.651567 0.0416232 0)
(-0.65954 0.0128726 0)
(-0.660913 -0.0172637 0)
(-0.655575 -0.0480372 0)
(-0.643305 -0.0785952 0)
(-0.623809 -0.107947 0)
(-0.596799 -0.134907 0)
(-0.562061 -0.158101 0)
(-0.519545 -0.176056 0)
(-0.469529 -0.187323 0)
(-0.412825 -0.190646 0)
(-0.350923 -0.185241 0)
(-0.286028 -0.171091 0)
(-0.220969 -0.149134 0)
(-0.158913 -0.121261 0)
(-0.102865 -0.0900739 0)
(-0.055113 -0.0584246 0)
(-0.0168435 -0.0288317 0)
(0.0118183 -0.00307051 0)
(0.0312519 0.0176576 0)
(0.0420109 0.0326827 0)
(0.0452995 0.0418509 0)
(0.0426375 0.0457008 0)
(0.035751 0.045301 0)
(0.0264033 0.0417608 0)
(0.0162526 0.0356007 0)
(0.00711057 0.0261578 0)
(0.000796575 0.0113831 0)
(0.000995788 -0.0139231 0)
(0.00416246 -0.0242951 0)
(0.00458254 -0.0208796 0)
(0.000398388 -0.0087282 0)
(-0.00946304 0.00765743 0)
(-0.0255641 0.0255953 0)
(-0.0486479 0.0444838 0)
(-0.0796946 0.064996 0)
(-0.119419 0.0877886 0)
(-0.167638 0.112549 0)
(-0.223007 0.137822 0)
(-0.283224 0.161455 0)
(-0.345523 0.181227 0)
(-0.407211 0.195361 0)
(-0.466066 0.202787 0)
(-0.520503 0.203156 0)
(-0.569546 0.196692 0)
(-0.612693 0.18398 0)
(-0.649744 0.165757 0)
(-0.680694 0.142798 0)
(-0.705678 0.115871 0)
(-0.7249 0.0856845 0)
(-0.738566 0.0528644 0)
(-0.746861 0.018016 0)
(-0.749922 -0.0182387 0)
(-0.74775 -0.0552864 0)
(-0.740117 -0.0924502 0)
(-0.72659 -0.128846 0)
(-0.706579 -0.163337 0)
(-0.679319 -0.194538 0)
(-0.643987 -0.220808 0)
(-0.59994 -0.240276 0)
(-0.546953 -0.251033 0)
(-0.485477 -0.25148 0)
(-0.416912 -0.240708 0)
(-0.343793 -0.218875 0)
(-0.269703 -0.187487 0)
(-0.198832 -0.149398 0)
(-0.135228 -0.108381 0)
(-0.081893 -0.0683146 0)
(-0.040116 -0.0323174 0)
(-0.0095224 -0.00225222 0)
(0.0110554 0.0211491 0)
(0.0228081 0.0376056 0)
(0.0271642 0.047333 0)
(0.0257875 0.0511136 0)
(0.0204682 0.0499415 0)
(0.0130798 0.0443215 0)
(0.00575006 0.0334786 0)
(0.000591114 0.0148946 0)
(0.00084 -0.0158649 0)
(0.00148507 -0.0247715 0)
(-0.00259318 -0.0166969 0)
(-0.0126823 0.00144676 0)
(-0.0295667 0.0244006 0)
(-0.0539209 0.0495672 0)
(-0.0866445 0.076638 0)
(-0.128497 0.106077 0)
(-0.179354 0.137636 0)
(-0.237787 0.169771 0)
(-0.30127 0.200001 0)
(-0.366771 0.225692 0)
(-0.431376 0.244728 0)
(-0.492721 0.25585 0)
(-0.549148 0.258662 0)
(-0.59966 0.253444 0)
(-0.643781 0.240903 0)
(-0.681413 0.22195 0)
(-0.712728 0.197551 0)
(-0.738118 0.168657 0)
(-0.75812 0.136151 0)
(-0.773314 0.100769 0)
(-0.784259 0.06313 0)
(-0.791463 0.0237854 0)
(-0.795261 -0.0168128 0)
(-0.795768 -0.0582959 0)
(-0.792887 -0.100228 0)
(-0.786205 -0.141978 0)
(-0.77498 -0.182705 0)
(-0.758097 -0.221257 0)
(-0.734196 -0.256035 0)
(-0.701799 -0.284978 0)
(-0.659499 -0.305723 0)
(-0.606306 -0.315849 0)
(-0.542144 -0.313253 0)
(-0.468294 -0.296699 0)
(-0.387662 -0.266437 0)
(-0.304736 -0.22462 0)
(-0.225045 -0.17527 0)
(-0.154063 -0.123618 0)
(-0.0957909 -0.0748535 0)
(-0.0516888 -0.0327702 0)
(-0.0207406 0.000878265 0)
(-0.000737962 0.0259559 0)
(0.0103143 0.0427949 0)
(0.0143186 0.0520174 0)
(0.013211 0.0544203 0)
(0.00901516 0.0503567 0)
(0.00400164 0.038929 0)
(0.000362334 0.0174932 0)
(0.000465299 -0.0160985 0)
(-0.00257157 -0.0209768 0)
(-0.0122812 -0.00662254 0)
(-0.0292279 0.0186526 0)
(-0.0539424 0.0492646 0)
(-0.0871761 0.0828688 0)
(-0.129654 0.119113 0)
(-0.181383 0.157651 0)
(-0.241043 0.196932 0)
(-0.306045 0.234245 0)
(-0.373153 0.266542 0)
(-0.4392 0.291284 0)
(-0.501581 0.306907 0)
(-0.558452 0.312876 0)
(-0.608697 0.309477 0)
(-0.651808 0.297545 0)
(-0.687763 0.278209 0)
(-0.716916 0.252708 0)
(-0.739916 0.222271 0)
(-0.757617 0.188038 0)
(-0.770941 0.150957 0)
(-0.780774 0.111755 0)
(-0.78793 0.0709858 0)
(-0.793065 0.0290341 0)
(-0.796608 -0.0138909 0)
(-0.798811 -0.0576362 0)
(-0.799748 -0.102026 0)
(-0.799122 -0.14681 0)
(-0.796274 -0.191575 0)
(-0.79015 -0.235541 0)
(-0.779282 -0.277425 0)
(-0.76173 -0.315393 0)
(-0.7352 -0.347034 0)
(-0.697386 -0.369398 0)
(-0.646471 -0.379293 0)
(-0.581713 -0.373879 0)
(-0.504118 -0.35146 0)
(-0.416958 -0.312292 0)
(-0.325816 -0.2592 0)
(-0.237853 -0.197604 0)
(-0.160265 -0.134587 0)
(-0.0982285 -0.076992 0)
(-0.0533056 -0.0293651 0)
(-0.0235719 0.0068777 0)
(-0.00555467 0.0324552 0)
(0.00361904 0.0482983 0)
(0.00646155 0.0552516 0)
(0.00529131 0.0535904 0)
(0.00248838 0.0423785 0)
(0.00020932 0.0191579 0)
(-0.000171525 -0.0137897 0)
(-0.00796303 -0.0118368 0)
(-0.0241166 0.0101937 0)
(-0.0484305 0.0434953 0)
(-0.0812228 0.0826288 0)
(-0.12313 0.125376 0)
(-0.174291 0.170809 0)
(-0.233633 0.217331 0)
(-0.298693 0.262092 0)
(-0.366136 0.301639 0)
(-0.432541 0.33291 0)
(-0.495001 0.353893 0)
(-0.5514 0.363781 0)
(-0.600437 0.362797 0)
(-0.64153 0.351883 0)
(-0.67471 0.332414 0)
(-0.700507 0.305967 0)
(-0.719823 0.274124 0)
(-0.733789 0.238345 0)
(-0.743606 0.199849 0)
(-0.750399 0.159547 0)
(-0.755158 0.118069 0)
(-0.758699 0.0758057 0)
(-0.761611 0.0329158 0)
(-0.764323 -0.0105779 0)
(-0.767165 -0.0546863 0)
(-0.770276 -0.099487 0)
(-0.773546 -0.145065 0)
(-0.776644 -0.191358 0)
(-0.778917 -0.238024 0)
(-0.779204 -0.284351 0)
(-0.77569 -0.329097 0)
(-0.765906 -0.370253 0)
(-0.746857 -0.404908 0)
(-0.715308 -0.429374 0)
(-0.668389 -0.439569 0)
(-0.60451 -0.431714 0)
(-0.524359 -0.403379 0)
(-0.431635 -0.35471 0)
(-0.33316 -0.289363 0)
(-0.237972 -0.214557 0)
(-0.155213 -0.139701 0)
(-0.0912404 -0.073612 0)
(-0.0473958 -0.0215245 0)
(-0.0204243 0.0158122 0)
(-0.00546852 0.0401202 0)
(0.00120739 0.0527835 0)
(0.00267547 0.0543907 0)
(0.00160658 0.0442043 0)
(0.000183977 0.0201693 0)
(-0.00107214 -0.00817034 0)
(-0.0144134 0.00339766 0)
(-0.0373626 0.0341315 0)
(-0.069036 0.0760324 0)
(-0.10949 0.124118 0)
(-0.158979 0.17593 0)
(-0.21676 0.229496 0)
(-0.280676 0.281858 0)
(-0.347455 0.329203 0)
(-0.413483 0.367864 0)
(-0.475531 0.395208 0)
(-0.531156 0.409988 0)
(-0.578809 0.412237 0)
(-0.617789 0.402952 0)
(-0.648154 0.383757 0)
(-0.670589 0.356598 0)
(-0.68624 0.323473 0)
(-0.696501 0.286219 0)
(-0.70281 0.246361 0)
(-0.706466 0.205025 0)
(-0.708541 0.162949 0)
(-0.709869 0.120556 0)
(-0.711037 0.078013 0)
(-0.712431 0.0353004 0)
(-0.714368 -0.00767229 0)
(-0.717117 -0.0510439 0)
(-0.720795 -0.0950283 0)
(-0.7255 -0.139842 0)
(-0.731269 -0.185633 0)
(-0.73793 -0.232461 0)
(-0.744916 -0.280211 0)
(-0.751097 -0.328357 0)
(-0.754594 -0.375671 0)
(-0.752589 -0.419963 0)
(-0.741328 -0.4579 0)
(-0.716532 -0.484978 0)
(-0.674217 -0.49592 0)
(-0.611865 -0.485669 0)
(-0.52976 -0.450891 0)
(-0.432084 -0.391666 0)
(-0.327164 -0.312789 0)
(-0.226231 -0.223838 0)
(-0.140475 -0.137169 0)
(-0.0771124 -0.0638097 0)
(-0.0365877 -0.00930093 0)
(-0.0137785 0.0268116 0)
(-0.00262461 0.0471543 0)
(0.00130456 0.0532549 0)
(0.00144737 0.0450224 0)
(0.000288238 0.0209472 0)
(-0.00217928 0.00130694 0)
(-0.0214244 0.0250149 0)
(-0.0510176 0.065053 0)
(-0.0894952 0.115733 0)
(-0.136544 0.1726 0)
(-0.191807 0.232547 0)
(-0.253589 0.292321 0)
(-0.318882 0.347799 0)
(-0.384019 0.394674 0)
(-0.445481 0.429529 0)
(-0.500461 0.450452 0)
(-0.547102 0.4571 0)
(-0.584521 0.45041 0)
(-0.612744 0.432208 0)
(-0.63257 0.404821 0)
(-0.645361 0.370709 0)
(-0.652767 0.332151 0)
(-0.656447 0.291022 0)
(-0.657854 0.248679 0)
(-0.658112 0.20598 0)
(-0.658008 0.16337 0)
(-0.658041 0.121003 0)
(-0.658477 0.0788465 0)
(-0.659459 0.0367737 0)
(-0.661108 -0.00537063 0)
(-0.663559 -0.0477692 0)
(-0.6669 -0.0906129 0)
(-0.671332 -0.134086 0)
(-0.677086 -0.178407 0)
(-0.684349 -0.223847 0)
(-0.693172 -0.270656 0)
(-0.703302 -0.318915 0)
(-0.713876 -0.368317 0)
(-0.723037 -0.417832 0)
(-0.727672 -0.465231 0)
(-0.723383 -0.506653 0)
(-0.70485 -0.536541 0)
(-0.666813 -0.548174 0)
(-0.605668 -0.534961 0)
(-0.521364 -0.492481 0)
(-0.418872 -0.420881 0)
(-0.308424 -0.326719 0)
(-0.20374 -0.222881 0)
(-0.117976 -0.125391 0)
(-0.0584533 -0.0473677 0)
(-0.023642 0.00624987 0)
(-0.00618771 0.0377666 0)
(0.000680414 0.0503951 0)
(0.00181037 0.0453587 0)
(0.000485844 0.021875 0)
(-0.00335768 0.0148758 0)
(-0.0283493 0.0528138 0)
(-0.0639621 0.102333 0)
(-0.1082 0.161512 0)
(-0.160268 0.226354 0)
(-0.219097 0.292802 0)
(-0.282163 0.356344 0)
(-0.345952 0.412059 0)
(-0.406761 0.455611 0)
(-0.461422 0.484177 0)
(-0.507707 0.496772 0)
(-0.54446 0.494065 0)
(-0.571584 0.47797 0)
(-0.589908 0.451161 0)
(-0.600954 0.416594 0)
(-0.606599 0.377058 0)
(-0.608721 0.334848 0)
(-0.608929 0.291605 0)
(-0.608405 0.248319 0)
(-0.607895 0.205456 0)
(-0.607791 0.163129 0)
(-0.608232 0.121252 0)
(-0.609212 0.0796614 0)
(-0.610672 0.0381838 0)
(-0.612566 -0.00334323 0)
(-0.614932 -0.0450551 0)
(-0.61783 -0.0870505 0)
(-0.621412 -0.129427 0)
(-0.62592 -0.172348 0)
(-0.631681 -0.216057 0)
(-0.639101 -0.260883 0)
(-0.648545 -0.307227 0)
(-0.660096 -0.355478 0)
(-0.673211 -0.405707 0)
(-0.686252 -0.457139 0)
(-0.695994 -0.507485 0)
(-0.69737 -0.552331 0)
(-0.68387 -0.584889 0)
(-0.648863 -0.596595 0)
(-0.58772 -0.578915 0)
(-0.500272 -0.526297 0)
(-0.392725 -0.43952 0)
(-0.277815 -0.328016 0)
(-0.172118 -0.209258 0)
(-0.0902929 -0.103556 0)
(-0.0383194 -0.0252632 0)
(-0.0113354 0.0229155 0)
(-0.000153503 0.0453721 0)
(0.00229758 0.0453577 0)
(0.00072069 0.0231577 0)
(-0.0044434 0.0323844 0)
(-0.0345355 0.0861301 0)
(-0.0751392 0.144916 0)
(-0.123721 0.211865 0)
(-0.178947 0.283343 0)
(-0.239063 0.354219 0)
(-0.300965 0.418936 0)
(-0.360961 0.472187 0)
(-0.415585 0.51 0)
(-0.4622 0.530409 0)
(-0.499276 0.533507 0)
(-0.526459 0.521072 0)
(-0.544485 0.496019 0)
(-0.554936 0.461789 0)
(-0.559861 0.421748 0)
(-0.561345 0.378716 0)
(-0.561164 0.334705 0)
(-0.560584 0.290897 0)
(-0.560341 0.247799 0)
(-0.560744 0.205477 0)
(-0.561823 0.16377 0)
(-0.563465 0.122446 0)
(-0.565512 0.0812935 0)
(-0.56781 0.0401464 0)
(-0.570251 -0.00111255 0)
(-0.572836 -0.0425445 0)
(-0.575594 -0.0841737 0)
(-0.578579 -0.126019 0)
(-0.581946 -0.168129 0)
(-0.585965 -0.210607 0)
(-0.591044 -0.253669 0)
(-0.597722 -0.297718 0)
(-0.606604 -0.343363 0)
(-0.618168 -0.391307 0)
(-0.632331 -0.442019 0)
(-0.647747 -0.495095 0)
(-0.661067 -0.548276 0)
(-0.666534 -0.596417 0)
(-0.656407 -0.631052 0)
(-0.622595 -0.641272 0)
(-0.559498 -0.616336 0)
(-0.467313 -0.549812 0)
(-0.354351 -0.444134 0)
(-0.236692 -0.313372 0)
(-0.133898 -0.181253 0)
(-0.0609063 -0.0724144 0)
(-0.0200549 -0.000192863 0)
(-0.00226729 0.0369491 0)
(0.00247048 0.044634 0)
(0.000940129 0.024756 0)
(-0.0052881 0.0532711 0)
(-0.0394221 0.123906 0)
(-0.0836907 0.191428 0)
(-0.134994 0.265057 0)
(-0.191458 0.341489 0)
(-0.250783 0.414571 0)
(-0.309554 0.478009 0)
(-0.364173 0.526506 0)
(-0.41161 0.556761 0)
(-0.449875 0.567867 0)
(-0.478217 0.561114 0)
(-0.497113 0.539426 0)
(-0.508058 0.506643 0)
(-0.513179 0.46675 0)
(-0.514737 0.423206 0)
(-0.51469 0.378531 0)
(-0.514425 0.33421 0)
(-0.514713 0.290856 0)
(-0.515823 0.248507 0)
(-0.517706 0.206925 0)
(-0.520167 0.165797 0)
(-0.522992 0.124853 0)
(-0.525997 0.0839067 0)
(-0.529042 0.0428401 0)
(-0.532038 0.00159479 0)
(-0.534992 -0.0398404 0)
(-0.537921 -0.0814515 0)
(-0.540814 -0.123213 0)
(-0.543728 -0.165091 0)
(-0.546783 -0.207066 0)
(-0.550199 -0.249196 0)
(-0.554364 -0.291681 0)
(-0.559902 -0.334965 0)
(-0.567655 -0.379812 0)
(-0.57848 -0.427283 0)
(-0.59273 -0.47837 0)
(-0.609404 -0.533095 0)
(-0.625079 -0.5891 0)
(-0.633188 -0.640188 0)
(-0.624493 -0.675694 0)
(-0.589375 -0.681759 0)
(-0.52169 -0.645184 0)
(-0.42293 -0.559394 0)
(-0.304704 -0.430485 0)
(-0.187312 -0.279819 0)
(-0.0928447 -0.138943 0)
(-0.0339615 -0.0351773 0)
(-0.00650178 0.0231802 0)
(0.00201332 0.0423178 0)
(0.00111665 0.0264196 0)
(-0.00577043 0.0766304 0)
(-0.0425966 0.164807 0)
(-0.0890427 0.240325 0)
(-0.141401 0.319317 0)
(-0.197321 0.398895 0)
(-0.25414 0.472059 0)
(-0.30838 0.532117 0)
(-0.356745 0.574117 0)
(-0.396761 0.595671 0)
(-0.427154 0.597077 0)
(-0.447962 0.580881 0)
(-0.46041 0.551097 0)
(-0.466558 0.512285 0)
(-0.468773 0.46865 0)
(-0.4692 0.4234 0)
(-0.469398 0.378493 0)
(-0.470232 0.334763 0)
(-0.471984 0.292285 0)
(-0.474562 0.250748 0)
(-0.477717 0.209755 0)
(-0.481188 0.16897 0)
(-0.484777 0.128173 0)
(-0.488361 0.0872394 0)
(-0.491862 0.046112 0)
(-0.495246 0.00477473 0)
(-0.498545 -0.0367633 0)
(-0.501783 -0.0784787 0)
(-0.504931 -0.120342 0)
(-0.507982 -0.162296 0)
(-0.510932 -0.204278 0)
(-0.513816 -0.246227 0)
(-0.516772 -0.288139 0)
(-0.520146 -0.330159 0)
(-0.524584 -0.37275 0)
(-0.531092 -0.416868 0)
(-0.540887 -0.463967 0)
(-0.554823 -0.515584 0)
(-0.572228 -0.572175 0)
(-0.589405 -0.631137 0)
(-0.598667 -0.684667 0)
(-0.589073 -0.718968 0)
(-0.549604 -0.716477 0)
(-0.474296 -0.66177 0)
(-0.367365 -0.549938 0)
(-0.245348 -0.39403 0)
(-0.133353 -0.226072 0)
(-0.0540418 -0.0858243 0)
(-0.0133489 0.00164704 0)
(0.000774221 0.0372282 0)
(0.00125411 0.0277898 0)
(-0.00581481 0.101329 0)
(-0.0438265 0.207355 0)
(-0.0909314 0.290028 0)
(-0.142774 0.372993 0)
(-0.196629 0.453977 0)
(-0.24966 0.525384 0)
(-0.298531 0.58044 0)
(-0.340379 0.61481 0)
(-0.373351 0.627195 0)
(-0.396889 0.619182 0)
(-0.411745 0.594543 0)
(-0.419715 0.558218 0)
(-0.423145 0.515185 0)
(-0.424337 0.469526 0)
(-0.425064 0.423907 0)
(-0.426365 0.379585 0)
(-0.428601 0.336774 0)
(-0.431687 0.295135 0)
(-0.435339 0.254177 0)
(-0.439263 0.213484 0)
(-0.443241 0.172789 0)
(-0.447157 0.131956 0)
(-0.450969 0.0909314 0)
(-0.454667 0.0497042 0)
(-0.458255 0.00827732 0)
(-0.461794 -0.0333391 0)
(-0.465323 -0.0751299 0)
(-0.468817 -0.117085 0)
(-0.472248 -0.15917 0)
(-0.475565 -0.201327 0)
(-0.478706 -0.243465 0)
(-0.481625 -0.285475 0)
(-0.484363 -0.327283 0)
(-0.487172 -0.368983 0)
(-0.490697 -0.411052 0)
(-0.496113 -0.454623 0)
(-0.505007 -0.501603 0)
(-0.518678 -0.554198 0)
(-0.536648 -0.613264 0)
(-0.554679 -0.675457 0)
(-0.563525 -0.730342 0)
(-0.550202 -0.759797 0)
(-0.50266 -0.741977 0)
(-0.416583 -0.660326 0)
(-0.301095 -0.51506 0)
(-0.179338 -0.331228 0)
(-0.0805222 -0.154853 0)
(-0.0231572 -0.030451 0)
(-0.00128038 0.0280332 0)
(0.00137194 0.0284894 0)
(-0.00539794 0.126124 0)
(-0.0430556 0.250041 0)
(-0.0893756 0.339048 0)
(-0.139322 0.424664 0)
(-0.189911 0.505529 0)
(-0.238305 0.573735 0)
(-0.281454 0.622701 0)
(-0.317 0.64891 0)
(-0.343713 0.652258 0)
(-0.361688 0.635628 0)
(-0.372234 0.603901 0)
(-0.37748 0.562685 0)
(-0.379784 0.517051 0)
(-0.381141 0.470653 0)
(-0.382836 0.425453 0)
(-0.385399 0.382009 0)
(-0.388813 0.340038 0)
(-0.392795 0.298966 0)
(-0.397022 0.258271 0)
(-0.401254 0.217613 0)
(-0.405369 0.176829 0)
(-0.409336 0.135867 0)
(-0.413181 0.0947282 0)
(-0.416933 0.053422 0)
(-0.420616 0.0119532 0)
(-0.424303 -0.0296776 0)
(-0.428044 -0.0714691 0)
(-0.431824 -0.113436 0)
(-0.435619 -0.155573 0)
(-0.439387 -0.197855 0)
(-0.443047 -0.240218 0)
(-0.446484 -0.282553 0)
(-0.449573 -0.324706 0)
(-0.452254 -0.366533 0)
(-0.4547 -0.408053 0)
(-0.457555 -0.449758 0)
(-0.462155 -0.493044 0)
(-0.470465 -0.540414 0)
(-0.484222 -0.594809 0)
(-0.502924 -0.657248 0)
(-0.521188 -0.722792 0)
(-0.527498 -0.776819 0)
(-0.506717 -0.795308 0)
(-0.446891 -0.752109 0)
(-0.347739 -0.632569 0)
(-0.225998 -0.448196 0)
(-0.11235 -0.242569 0)
(-0.0364042 -0.0761128 0)
(-0.00422434 0.013231 0)
(0.00146155 0.0281086 0)
(-0.00454446 0.149776 0)
(-0.0403761 0.291429 0)
(-0.0846173 0.386063 0)
(-0.131527 0.473182 0)
(-0.177979 0.552714 0)
(-0.221267 0.616724 0)
(-0.258716 0.65904 0)
(-0.288493 0.67709 0)
(-0.30994 0.672006 0)
(-0.323675 0.647889 0)
(-0.33137 0.610536 0)
(-0.335245 0.565936 0)
(-0.337445 0.518953 0)
(-0.339536 0.472618 0)
(-0.34231 0.428152 0)
(-0.345906 0.385521 0)
(-0.350087 0.34412 0)
(-0.354517 0.303298 0)
(-0.358932 0.262603 0)
(-0.36319 0.221812 0)
(-0.367259 0.18086 0)
(-0.371173 0.139756 0)
(-0.374993 0.0985251 0)
(-0.378763 0.0571819 0)
(-0.382507 0.0157211 0)
(-0.386294 -0.02587 0)
(-0.390182 -0.0676023 0)
(-0.394161 -0.109509 0)
(-0.398218 -0.151606 0)
(-0.40233 -0.193901 0)
(-0.406441 -0.236376 0)
(-0.41045 -0.278969 0)
(-0.4142 -0.321554 0)
(-0.417501 -0.363924 0)
(-0.420209 -0.405853 0)
(-0.422415 -0.447295 0)
(-0.424781 -0.488815 0)
(-0.428882 -0.532183 0)
(-0.43713 -0.580692 0)
(-0.451584 -0.638119 0)
(-0.471212 -0.705123 0)
(-0.488618 -0.773513 0)
(-0.489293 -0.822069 0)
(-0.456342 -0.819448 0)
(-0.38014 -0.737032 0)
(-0.268004 -0.568481 0)
(-0.146955 -0.346023 0)
(-0.0534061 -0.137554 0)
(-0.00822334 -0.00881214 0)
(0.00147496 0.0261912 0)
(-0.00331694 0.171141 0)
(-0.0359902 0.33022 0)
(-0.0770491 0.429964 0)
(-0.120035 0.517689 0)
(-0.161775 0.59503 0)
(-0.199786 0.654294 0)
(-0.231816 0.689871 0)
(-0.256523 0.700197 0)
(-0.273728 0.687601 0)
(-0.284412 0.657265 0)
(-0.290403 0.615668 0)
(-0.293809 0.568903 0)
(-0.29643 0.521412 0)
(-0.299378 0.475525 0)
(-0.303043 0.43179 0)
(-0.307312 0.389738 0)
(-0.311871 0.348606 0)
(-0.316426 0.30778 0)
(-0.320809 0.266927 0)
(-0.324973 0.225935 0)
(-0.328949 0.184811 0)
(-0.332805 0.143595 0)
(-0.336613 0.102315 0)
(-0.340415 0.0609769 0)
(-0.344224 0.0195611 0)
(-0.348098 -0.0219572 0)
(-0.352101 -0.0635966 0)
(-0.356227 -0.105402 0)
(-0.360462 -0.147403 0)
(-0.3648 -0.189627 0)
(-0.369214 -0.232093 0)
(-0.37364 -0.27479 0)
(-0.377963 -0.317658 0)
(-0.381997 -0.360545 0)
(-0.38549 -0.403189 0)
(-0.388216 -0.445277 0)
(-0.390225 -0.486708 0)
(-0.392274 -0.528205 0)
(-0.39627 -0.572175 0)
(-0.405124 -0.623027 0)
(-0.420995 -0.685281 0)
(-0.441503 -0.757933 0)
(-0.45597 -0.826733 0)
(-0.446365 -0.860876 0)
(-0.395731 -0.821529 0)
(-0.300802 -0.683232 0)
(-0.180791 -0.459538 0)
(-0.0736146 -0.215129 0)
(-0.0135241 -0.0398826 0)
(0.00139058 0.0222562 0)
(-0.0018043 0.18924 0)
(-0.030169 0.365299 0)
(-0.0671442 0.469865 0)
(-0.105555 0.557587 0)
(-0.142255 0.632236 0)
(-0.175035 0.686611 0)
(-0.202067 0.715754 0)
(-0.222445 0.719103 0)
(-0.23634 0.700083 0)
(-0.244933 0.664782 0)
(-0.250024 0.62012 0)
(-0.25347 0.57208 0)
(-0.256676 0.524562 0)
(-0.260355 0.479215 0)
(-0.264613 0.436044 0)
(-0.269219 0.394304 0)
(-0.273874 0.353201 0)
(-0.278369 0.312218 0)
(-0.28263 0.271142 0)
(-0.286676 0.229951 0)
(-0.290572 0.188692 0)
(-0.294396 0.147409 0)
(-0.298217 0.106123 0)
(-0.302069 0.0648237 0)
(-0.305954 0.0234788 0)
(-0.309914 -0.0179466 0)
(-0.314023 -0.0594752 0)
(-0.318278 -0.101161 0)
(-0.322656 -0.143041 0)
(-0.327159 -0.185153 0)
(-0.331774 -0.227535 0)
(-0.336473 -0.270214 0)
(-0.341187 -0.313188 0)
(-0.345788 -0.356392 0)
(-0.350055 -0.399642 0)
(-0.353681 -0.4426 0)
(-0.356381 -0.484848 0)
(-0.358202 -0.526283 0)
(-0.360104 -0.568004 0)
(-0.364507 -0.613459 0)
(-0.374867 -0.668522 0)
(-0.392871 -0.737872 0)
(-0.413327 -0.816196 0)
(-0.420871 -0.878817 0)
(-0.394632 -0.882608 0)
(-0.321502 -0.784938 0)
(-0.21029 -0.576049 0)
(-0.0954311 -0.306797 0)
(-0.0203516 -0.0816575 0)
(0.00125074 0.0158198 0)
(-0.000110699 0.203294 0)
(-0.023219 0.395742 0)
(-0.0554006 0.505093 0)
(-0.0887889 0.592497 0)
(-0.120304 0.664285 0)
(-0.14803 0.713972 0)
(-0.17054 0.737288 0)
(-0.187277 0.734601 0)
(-0.198639 0.710298 0)
(-0.205845 0.671169 0)
(-0.210533 0.624377 0)
(-0.214235 0.575647 0)
(-0.217974 0.528314 0)
(-0.222156 0.483432 0)
(-0.226719 0.440609 0)
(-0.231408 0.39896 0)
(-0.235988 0.357732 0)
(-0.240339 0.316525 0)
(-0.244454 0.275229 0)
(-0.248394 0.233876 0)
(-0.252233 0.192529 0)
(-0.256045 0.151224 0)
(-0.259888 0.109966 0)
(-0.263795 0.0687324 0)
(-0.267756 0.0274796 0)
(-0.271799 -0.0138363 0)
(-0.276011 -0.0552393 0)
(-0.280396 -0.0967937 0)
(-0.284914 -0.138539 0)
(-0.289571 -0.180522 0)
(-0.294359 -0.222787 0)
(-0.299262 -0.26538 0)
(-0.304247 -0.308339 0)
(-0.309239 -0.351668 0)
(-0.314091 -0.395286 0)
(-0.318545 -0.438954 0)
(-0.322237 -0.482226 0)
(-0.324834 -0.524583 0)
(-0.326475 -0.56604 0)
(-0.328522 -0.608449 0)
(-0.334117 -0.656946 0)
(-0.347071 -0.719075 0)
(-0.367383 -0.797769 0)
(-0.384994 -0.878364 0)
(-0.379108 -0.920262 0)
(-0.329169 -0.868489 0)
(-0.232697 -0.688543 0)
(-0.116698 -0.408565 0)
(-0.0287059 -0.135286 0)
(0.00111783 0.0063703 0)
(0.00165417 0.212745 0)
(-0.0154565 0.420816 0)
(-0.0423005 0.535155 0)
(-0.0703793 0.622212 0)
(-0.096695 0.691256 0)
(-0.119608 0.736727 0)
(-0.138052 0.755031 0)
(-0.151734 0.747355 0)
(-0.161154 0.718875 0)
(-0.167446 0.676896 0)
(-0.171992 0.628666 0)
(-0.175977 0.579591 0)
(-0.180098 0.532482 0)
(-0.184544 0.487921 0)
(-0.189181 0.445253 0)
(-0.193785 0.403541 0)
(-0.198197 0.362114 0)
(-0.20237 0.320676 0)
(-0.206342 0.279193 0)
(-0.210187 0.237726 0)
(-0.213978 0.196336 0)
(-0.217776 0.155045 0)
(-0.221636 0.113843 0)
(-0.225588 0.0726983 0)
(-0.229616 0.0315589 0)
(-0.233732 -0.00962758 0)
(-0.238042 -0.0508854 0)
(-0.242563 -0.0922914 0)
(-0.247234 -0.133889 0)
(-0.252059 -0.175728 0)
(-0.25703 -0.217859 0)
(-0.262136 -0.260336 0)
(-0.267357 -0.303216 0)
(-0.272651 -0.346546 0)
(-0.277933 -0.390326 0)
(-0.283026 -0.434442 0)
(-0.287624 -0.47856 0)
(-0.291302 -0.52209 0)
(-0.293732 -0.564442 0)
(-0.295292 -0.606029 0)
(-0.298018 -0.650173 0)
(-0.305949 -0.704513 0)
(-0.322548 -0.777538 0)
(-0.343854 -0.865754 0)
(-0.352713 -0.937226 0)
(-0.324608 -0.931497 0)
(-0.246495 -0.79115 0)
(-0.135362 -0.515382 0)
(-0.0381968 -0.200542 0)
(0.000969461 -0.00656203 0)
(0.00338433 0.217283 0)
(-0.00719076 0.439934 0)
(-0.0282926 0.559709 0)
(-0.0508899 0.646643 0)
(-0.0720666 0.713293 0)
(-0.0904178 0.755221 0)
(-0.105192 0.769461 0)
(-0.116277 0.757874 0)
(-0.124172 0.726242 0)
(-0.129833 0.682223 0)
(-0.134336 0.633049 0)
(-0.138531 0.583806 0)
(-0.142854 0.536868 0)
(-0.147361 0.492473 0)
(-0.151904 0.449809 0)
(-0.156318 0.407949 0)
(-0.160513 0.366304 0)
(-0.164495 0.324664 0)
(-0.168322 0.283039 0)
(-0.17207 0.241505 0)
(-0.175805 0.20011 0)
(-0.179577 0.158862 0)
(-0.183434 0.117739 0)
(-0.187411 0.0767056 0)
(-0.191494 0.0357044 0)
(-0.195666 -0.00532583 0)
(-0.200066 -0.0464123 0)
(-0.204728 -0.0876443 0)
(-0.209565 -0.129073 0)
(-0.21458 -0.17075 0)
(-0.219761 -0.21273 0)
(-0.225097 -0.25507 0)
(-0.230571 -0.297836 0)
(-0.236159 -0.341098 0)
(-0.241808 -0.384909 0)
(-0.247409 -0.429251 0)
(-0.252743 -0.473935 0)
(-0.257442 -0.51848 0)
(-0.261032 -0.562117 0)
(-0.263278 -0.604336 0)
(-0.265053 -0.646554 0)
(-0.26945 -0.694706 0)
(-0.281253 -0.759471 0)
(-0.301655 -0.846952 0)
(-0.319403 -0.937899 0)
(-0.309852 -0.974039 0)
(-0.251433 -0.879752 0)
(-0.14994 -0.622116 0)
(-0.0480933 -0.275661 0)
(0.000665104 -0.0234223 0)
(0.0049383 0.216719 0)
(0.00127318 0.452755 0)
(-0.0137763 0.578496 0)
(-0.0308016 0.665778 0)
(-0.0469326 0.730562 0)
(-0.0609482 0.769752 0)
(-0.0723625 0.780949 0)
(-0.081175 0.766517 0)
(-0.0878088 0.732667 0)
(-0.0929807 0.68727 0)
(-0.0974418 0.637495 0)
(-0.101736 0.588151 0)
(-0.106097 0.541291 0)
(-0.110506 0.496928 0)
(-0.11484 0.454171 0)
(-0.118997 0.412126 0)
(-0.122945 0.370279 0)
(-0.126722 0.328478 0)
(-0.130394 0.28676 0)
(-0.134031 0.245198 0)
(-0.137688 0.20383 0)
(-0.141411 0.162651 0)
(-0.145242 0.121632 0)
(-0.149224 0.0807336 0)
(-0.153343 0.039901 0)
(-0.157554 -0.000935485 0)
(-0.162029 -0.0418204 0)
(-0.166834 -0.0828427 0)
(-0.171849 -0.124071 0)
(-0.177073 -0.16556 0)
(-0.182492 -0.207365 0)
(-0.188094 -0.249545 0)
(-0.193862 -0.292169 0)
(-0.199776 -0.33532 0)
(-0.205802 -0.379082 0)
(-0.211867 -0.423502 0)
(-0.217826 -0.468511 0)
(-0.223402 -0.513785 0)
(-0.228154 -0.558624 0)
(-0.231603 -0.602116 0)
(-0.233796 -0.644249 0)
(-0.236518 -0.688623 0)
(-0.244208 -0.745295 0)
(-0.261247 -0.826638 0)
(-0.282825 -0.92724 0)
(-0.287555 -0.998044 0)
(-0.248284 -0.9521 0)
(-0.159696 -0.724266 0)
(-0.0575614 -0.35788 0)
(-4.94686e-06 -0.0446365 0)
(0.00616107 0.211281 0)
(0.00957224 0.458837 0)
(0.000923692 0.591424 0)
(-0.0105148 0.679624 0)
(-0.0216995 0.743214 0)
(-0.031555 0.780551 0)
(-0.039823 0.789751 0)
(-0.0465649 0.773508 0)
(-0.052078 0.738286 0)
(-0.0568064 0.692062 0)
(-0.0611755 0.641927 0)
(-0.0654543 0.592493 0)
(-0.0697187 0.545612 0)
(-0.0739155 0.501173 0)
(-0.0779617 0.458264 0)
(-0.0818147 0.416033 0)
(-0.0854893 0.374019 0)
(-0.0890401 0.332105 0)
(-0.0925344 0.290337 0)
(-0.0960339 0.248784 0)
(-0.099588 0.207473 0)