/*--------------------------------*- C++ -*----------------------------------*\
  =========                 |
  \\      /  F ield         | OpenFOAM: The Open Source CFD Toolbox
   \\    /   O peration     | Website:  https://openfoam.org
    \\  /    A nd           | Version:  7
     \\/     M anipulation  |
\*---------------------------------------------------------------------------*/
FoamFile
{
    version     2.0;
    format      ascii;
    class       volScalarField;
    location    "1100";
    object      p;
}
// * * * * * * * * * * * * * * * * * * * * * * * * * * * * * * * * * * * * * //

dimensions      [0 2 -2 0 0 0 0];

internalField   nonuniform List<scalar> 
2500
(
3.66819e-07
7.15588e-05
-8.32067e-06
-0.000307163
-0.000781588
-0.00136916
-0.00202971
-0.0027587
-0.00358184
-0.00453981
-0.00567265
-0.00701027
-0.00856957
-0.0103503
-0.0123289
-0.0144514
-0.0166255
-0.0187197
-0.0205689
-0.021991
-0.0228113
-0.0228904
-0.0221528
-0.0206151
-0.018403
-0.0157429
-0.0129563
-0.0104604
-0.00871726
-0.00816464
-0.00913555
-0.0117669
-0.0159462
-0.0213781
-0.0276031
-0.0340595
-0.0402188
-0.0456798
-0.0502116
-0.0537391
-0.0563123
-0.0580661
-0.0591749
-0.0598149
-0.0601379
-0.06026
-0.0602591
-0.0601778
-0.0600385
-0.0598993
-6.85621e-05
4.30337e-06
-7.95017e-05
-0.000375983
-0.000828403
-0.0013726
-0.00197345
-0.0026324
-0.00337804
-0.0042507
-0.00528921
-0.00652351
-0.00797429
-0.0096493
-0.0115369
-0.0136003
-0.0157685
-0.0179301
-0.0199322
-0.021591
-0.0227142
-0.0231317
-0.0227298
-0.0214842
-0.01949
-0.0169641
-0.0142436
-0.011764
-0.010006
-0.00942677
-0.0103747
-0.0130092
-0.0172461
-0.0227361
-0.0289769
-0.0354204
-0.0415123
-0.0468116
-0.051079
-0.0542877
-0.0565552
-0.0580633
-0.0590053
-0.059554
-0.0598457
-0.0599774
-0.0600113
-0.0599768
-0.0598753
-0.0597436
-1.85063e-05
5.01871e-05
-5.67445e-05
-0.000379241
-0.000831677
-0.00133829
-0.0018689
-0.00243633
-0.00308164
-0.00385238
-0.00479266
-0.00594287
-0.00734101
-0.00902155
-0.0110045
-0.0132786
-0.0157837
-0.0183979
-0.020939
-0.0231803
-0.0248827
-0.025832
-0.0258769
-0.0249663
-0.0231925
-0.0207825
-0.0180735
-0.0154994
-0.0135528
-0.012714
-0.0133649
-0.0157039
-0.0196861
-0.0250098
-0.0311662
-0.037534
-0.0435353
-0.0487278
-0.0528311
-0.0557794
-0.0577031
-0.0588475
-0.0594663
-0.0597642
-0.0598857
-0.0599206
-0.0599154
-0.0598799
-0.059784
-0.0596397
0.000228748
0.000266794
0.000102323
-0.000279009
-0.000754828
-0.00123617
-0.00170208
-0.00218469
-0.00274506
-0.00345424
-0.00438565
-0.00561876
-0.00723841
-0.00932161
-0.0119113
-0.0149872
-0.0184462
-0.0221001
-0.0256929
-0.0289339
-0.0315385
-0.0332673
-0.0339559
-0.0335405
-0.0320923
-0.0298143
-0.0270193
-0.0241285
-0.0216361
-0.0200489
-0.019805
-0.0211841
-0.024235
-0.0287445
-0.0342627
-0.0401863
-0.0458929
-0.0508633
-0.0548023
-0.0576199
-0.0593674
-0.0602563
-0.060568
-0.0605624
-0.0604239
-0.0602624
-0.0601282
-0.0600223
-0.0598923
-0.0597274
0.000708107
0.000677962
0.000418742
-4.34597e-05
-0.00055468
-0.00102858
-0.00145968
-0.00190795
-0.00247411
-0.00328013
-0.00446306
-0.00617076
-0.00854247
-0.0116738
-0.015579
-0.0201672
-0.025242
-0.0305226
-0.0356784
-0.0403682
-0.0442773
-0.047149
-0.0488052
-0.0491602
-0.0482436
-0.0462022
-0.0433014
-0.0399251
-0.036545
-0.0336775
-0.0318152
-0.0313455
-0.0324701
-0.0351461
-0.0390736
-0.0437472
-0.0485668
-0.0529715
-0.0565614
-0.059149
-0.0607682
-0.0615749
-0.0617607
-0.0615756
-0.0612388
-0.0608937
-0.0606138
-0.0604122
-0.0602359
-0.060059
0.00146334
0.00132927
0.00094985
0.000398211
-0.000167963
-0.000674498
-0.00114608
-0.00169557
-0.00249225
-0.0037423
-0.00567138
-0.00849355
-0.0123645
-0.0173352
-0.0233257
-0.0301277
-0.0374321
-0.0448674
-0.0520401
-0.0585696
-0.0641196
-0.06842
-0.0712818
-0.0726055
-0.0723908
-0.0707228
-0.0677978
-0.0639357
-0.0595456
-0.0551041
-0.0511129
-0.0480424
-0.0462594
-0.0459506
-0.0470696
-0.0493328
-0.0522776
-0.0553746
-0.0581565
-0.0603134
-0.0617249
-0.0624398
-0.0626218
-0.0624338
-0.0620474
-0.0616218
-0.0612561
-0.0609877
-0.0607824
-0.0606109
0.00253289
0.00227004
0.00176122
0.00110968
0.00045272
-0.000166565
-0.000836337
-0.00175229
-0.00318389
-0.0054413
-0.00882644
-0.0135685
-0.0197644
-0.0273471
-0.0360919
-0.0456503
-0.0555982
-0.0654824
-0.0748604
-0.0833323
-0.0905642
-0.0962996
-0.100365
-0.10267
-0.103212
-0.10204
-0.0992783
-0.0951629
-0.0899975
-0.0841544
-0.0780642
-0.0721937
-0.067002
-0.0628778
-0.0600725
-0.0586437
-0.0584332
-0.0591023
-0.0602234
-0.0613947
-0.062328
-0.0628841
-0.0630618
-0.0629488
-0.0626492
-0.0622744
-0.0619238
-0.0616551
-0.0614594
-0.0613142
0.00392315
0.00352416
0.0028851
0.00211137
0.00129608
0.00041143
-0.00072788
-0.00243105
-0.00508317
-0.00907828
-0.0147319
-0.0222
-0.0314357
-0.0421944
-0.0540768
-0.0665895
-0.0792056
-0.0914151
-0.102763
-0.112872
-0.121456
-0.128314
-0.133321
-0.136419
-0.137623
-0.136993
-0.134602
-0.130595
-0.125157
-0.118517
-0.110963
-0.102846
-0.0945785
-0.0866166
-0.0794207
-0.0733921
-0.0687947
-0.0656919
-0.0639266
-0.0631667
-0.063008
-0.0630895
-0.0631665
-0.0631324
-0.0629832
-0.0627603
-0.0625266
-0.0623357
-0.0621956
-0.0620949
0.00557932
0.00505113
0.00427684
0.00333841
0.00224021
0.000843971
-0.00116252
-0.00421523
-0.00879151
-0.0152996
-0.023969
-0.0347851
-0.0474864
-0.0616149
-0.0765932
-0.0918043
-0.10666
-0.12065
-0.133364
-0.144504
-0.153874
-0.161363
-0.166913
-0.170506
-0.172186
-0.172048
-0.17014
-0.166539
-0.16133
-0.154614
-0.146518
-0.137213
-0.126945
-0.11606
-0.105024
-0.0944079
-0.0848306
-0.0768513
-0.0708317
-0.0668228
-0.0645461
-0.0635039
-0.0631626
-0.0631075
-0.0631082
-0.0630887
-0.0630442
-0.0629974
-0.0629524
-0.0629074
0.00735097
0.00670776
0.00578709
0.004602
0.00302368
0.000773201
-0.0026015
-0.00764127
-0.0148456
-0.0245314
-0.0367347
-0.0511896
-0.06738
-0.0846352
-0.102234
-0.119498
-0.135851
-0.150855
-0.164209
-0.175732
-0.185337
-0.193003
-0.198739
-0.202562
-0.204532
-0.204777
-0.203334
-0.200242
-0.195535
-0.189232
-0.181344
-0.171885
-0.160902
-0.148527
-0.135035
-0.120903
-0.106839
-0.0937373
-0.0825187
-0.0738906
-0.0681029
-0.0648554
-0.0634466
-0.0630852
-0.0631604
-0.063342
-0.0635222
-0.0636601
-0.0637353
-0.0637499
0.00898007
0.00824083
0.00713829
0.00557355
0.00324945
-0.000267032
-0.00555123
-0.0131853
-0.0235868
-0.0368684
-0.0527841
-0.0707735
-0.0900712
-0.109841
-0.129298
-0.147791
-0.164845
-0.180156
-0.193564
-0.205009
-0.214499
-0.22208
-0.227802
-0.231701
-0.233842
-0.234354
-0.233268
-0.230617
-0.226416
-0.22066
-0.213309
-0.204294
-0.193532
-0.180954
-0.166577
-0.150599
-0.133514
-0.116189
-0.0998339
-0.0857857
-0.0751158
-0.0682182
-0.0646488
-0.0633801
-0.0633077
-0.0636509
-0.0640496
-0.0643853
-0.0645904
-0.0646652
0.0101131
0.00928274
0.00793119
0.00580951
0.00243302
-0.0027746
-0.0104612
-0.0211554
-0.0350804
-0.052051
-0.071492
-0.0925548
-0.114281
-0.135762
-0.156252
-0.175221
-0.192354
-0.207507
-0.220651
-0.231822
-0.241086
-0.248518
-0.254181
-0.258117
-0.260376
-0.26107
-0.260224
-0.25787
-0.254028
-0.248698
-0.241844
-0.233391
-0.223211
-0.211138
-0.197004
-0.180718
-0.162404
-0.142575
-0.122283
-0.103106
-0.0868389
-0.0748981
-0.0677003
-0.064482
-0.0637658
-0.064132
-0.0647275
-0.0652555
-0.0655926
-0.0657307
0.0103213
0.00938561
0.00769392
0.00481647
8.54609e-05
-0.00718178
-0.0176281
-0.0316241
-0.0491033
-0.0695294
-0.0920014
-0.115441
-0.138796
-0.161194
-0.182025
-0.20094
-0.2178
-0.232602
-0.245411
-0.256315
-0.265399
-0.272739
-0.278388
-0.282379
-0.284744
-0.285575
-0.284883
-0.282701
-0.279054
-0.273957
-0.2674
-0.259336
-0.249665
-0.238224
-0.224787
-0.209099
-0.190967
-0.170445
-0.148084
-0.125169
-0.103715
-0.0860131
-0.073742
-0.0671267
-0.0648498
-0.0648945
-0.0656391
-0.0663513
-0.0668287
-0.0670421
0.00916007
0.00809359
0.00596003
0.00213955
-0.00419221
-0.0137671
-0.0271348
-0.0444162
-0.0651959
-0.0885818
-0.1134
-0.13844
-0.162667
-0.185344
-0.206054
-0.224641
-0.241114
-0.255567
-0.268113
-0.27885
-0.287855
-0.295187
-0.300882
-0.304959
-0.307433
-0.308378
-0.307795
-0.305712
-0.302156
-0.297149
-0.290701
-0.282801
-0.2734
-0.262392
-0.249592
-0.234728
-0.217466
-0.197519
-0.174879
-0.150178
-0.125018
-0.101955
-0.0837876
-0.0722652
-0.0670787
-0.0661041
-0.0668353
-0.0677397
-0.0683819
-0.0686957
0.00625283
0.0050232
0.00235553
-0.00254967
-0.0106302
-0.0226006
-0.0388364
-0.0591464
-0.082751
-0.108444
-0.134866
-0.160784
-0.185281
-0.207813
-0.228167
-0.246348
-0.262468
-0.276665
-0.289059
-0.299734
-0.308744
-0.316127
-0.321904
-0.326081
-0.32866
-0.329705
-0.329213
-0.327204
-0.3237
-0.318721
-0.312286
-0.304404
-0.295068
-0.284235
-0.271803
-0.257575
-0.241239
-0.222382
-0.200623
-0.175914
-0.149045
-0.122089
-0.0982722
-0.080824
-0.0711928
-0.0680717
-0.0683885
-0.0694821
-0.0703249
-0.0707816
0.0013606
-6.28049e-05
-0.00332824
-0.00938975
-0.0192466
-0.0335324
-0.052389
-0.075288
-0.101111
-0.128412
-0.15575
-0.181966
-0.20632
-0.228481
-0.248408
-0.266219
-0.282076
-0.296121
-0.308453
-0.319133
-0.328189
-0.335642
-0.341504
-0.345771
-0.348442
-0.349574
-0.349165
-0.347226
-0.343773
-0.338821
-0.332387
-0.324482
-0.315119
-0.304297
-0.291986
-0.278092
-0.26241
-0.244583
-0.22411
-0.200508
-0.17374
-0.144903
-0.116766
-0.0933401
-0.0780199
-0.0713218
-0.0704636
-0.0716438
-0.0727348
-0.0733905
-0.00556946
-0.00720775
-0.011094
-0.0183039
-0.0298452
-0.0462207
-0.0673076
-0.0922506
-0.11965
-0.147909
-0.175596
-0.201696
-0.225672
-0.247378
-0.266902
-0.28442
-0.300101
-0.314067
-0.326387
-0.337093
-0.346198
-0.35371
-0.359637
-0.363976
-0.366719
-0.367922
-0.367588
-0.365719
-0.362328
-0.357424
-0.351016
-0.343114
-0.333729
-0.322874
-0.310561
-0.296774
-0.28143
-0.26431
-0.244995
-0.222871
-0.197357
-0.168525
-0.138039
-0.10967
-0.0881937
-0.0765306
-0.0733792
-0.0743272
-0.0757253
-0.0766288
-0.0143896
-0.0162496
-0.0207367
-0.0290133
-0.0420491
-0.0601857
-0.083033
-0.109448
-0.137822
-0.166493
-0.194114
-0.219843
-0.243334
-0.264586
-0.283765
-0.301063
-0.31663
-0.330553
-0.342872
-0.353598
-0.362733
-0.370281
-0.376249
-0.380636
-0.383433
-0.384692
-0.384421
-0.38262
-0.379296
-0.374457
-0.368106
-0.360248
-0.350887
-0.340034
-0.32771
-0.313939
-0.298722
-0.281983
-0.263474
-0.242679
-0.218835
-0.191293
-0.160448
-0.12895
-0.101873
-0.0843423
-0.0775951
-0.0776931
-0.0794202
-0.0806085
-0.0247718
-0.0268449
-0.0318751
-0.0410809
-0.0553566
-0.0748728
-0.098994
-0.126345
-0.155184
-0.183854
-0.211134
-0.236359
-0.259343
-0.280182
-0.299076
-0.316207
-0.331689
-0.345576
-0.357885
-0.368612
-0.377753
-0.385314
-0.391302
-0.395719
-0.398556
-0.399855
-0.399639
-0.397897
-0.394639
-0.38987
-0.383593
-0.375809
-0.366518
-0.355724
-0.343439
-0.329695
-0.314531
-0.297969
-0.279927
-0.260093
-0.237804
-0.212111
-0.182409
-0.149833
-0.11861
-0.0951336
-0.0836171
-0.0819719
-0.083925
-0.0854426
-0.0362546
-0.038517
-0.0440059
-0.0539703
-0.069203
-0.0897117
-0.114654
-0.142483
-0.171391
-0.199779
-0.226562
-0.251237
-0.273735
-0.294212
-0.312871
-0.329863
-0.345269
-0.359113
-0.371393
-0.382101
-0.391231
-0.398788
-0.404782
-0.409215
-0.412081
-0.413411
-0.413238
-0.411548
-0.408349
-0.403648
-0.397448
-0.389751
-0.380555
-0.36986
-0.357673
-0.344012
-0.328922
-0.312465
-0.294677
-0.27545
-0.254354
-0.230498
-0.20275
-0.170855
-0.137437
-0.108848
-0.0918732
-0.0874567
-0.0893303
-0.0912505
-0.0483023
-0.0507175
-0.0565658
-0.0671075
-0.0830174
-0.104162
-0.129538
-0.157487
-0.186187
-0.21412
-0.240341
-0.264472
-0.286529
-0.306693
-0.325149
-0.342017
-0.357343
-0.371132
-0.38337
-0.394044
-0.403151
-0.410694
-0.416684
-0.421128
-0.424013
-0.425366
-0.42523
-0.423581
-0.420433
-0.415792
-0.409664
-0.402053
-0.392959
-0.382384
-0.370329
-0.356805
-0.341845
-0.325513
-0.307898
-0.28904
-0.268761
-0.246423
-0.220821
-0.190776
-0.157111
-0.124958
-0.102561
-0.0944275
-0.0957286
-0.0981442
-0.0603645
-0.0628857
-0.0689894
-0.0799341
-0.0962676
-0.117745
-0.143249
-0.17106
-0.199378
-0.226777
-0.252429
-0.276056
-0.297723
-0.317613
-0.33589
-0.352639
-0.367882
-0.381606
-0.393792
-0.404426
-0.413504
-0.421029
-0.427012
-0.43146
-0.434362
-0.43573
-0.435622
-0.434009
-0.430902
-0.426312
-0.420246
-0.412712
-0.403715
-0.39326
-0.38135
-0.367993
-0.35321
-0.337054
-0.31962
-0.301025
-0.281287
-0.260075
-0.236413
-0.208747
-0.176396
-0.142564
-0.115533
-0.103076
-0.103228
-0.106181
-0.0719268
-0.0745029
-0.080757
-0.0919475
-0.108489
-0.130058
-0.155465
-0.182972
-0.21082
-0.23767
-0.262789
-0.285967
-0.307295
-0.326948
-0.345062
-0.361697
-0.376854
-0.39051
-0.402641
-0.413234
-0.422284
-0.429792
-0.435767
-0.440218
-0.443132
-0.44451
-0.444426
-0.442839
-0.439765
-0.435215
-0.429199
-0.421729
-0.412815
-0.402469
-0.390699
-0.377514
-0.362932
-0.346994
-0.329782
-0.311435
-0.292088
-0.271678
-0.24958
-0.224319
-0.194273
-0.160574
-0.130275
-0.113414
-0.111886
-0.115299
-0.0825704
-0.0851074
-0.0914281
-0.102726
-0.1193
-0.140778
-0.165938
-0.19305
-0.220404
-0.246735
-0.271381
-0.294174
-0.315213
-0.33466
-0.352629
-0.369157
-0.384232
-0.397823
-0.409904
-0.420462
-0.429488
-0.436983
-0.442952
-0.447404
-0.450329
-0.451712
-0.451646
-0.450079
-0.447028
-0.442506
-0.436527
-0.429105
-0.420257
-0.41
-0.39835
-0.385325
-0.370944
-0.355241
-0.338286
-0.32021
-0.301201
-0.281378
-0.260471
-0.237342
-0.210024
-0.177902
-0.145976
-0.125201
-0.121603
-0.12526
-0.0919778
-0.0943221
-0.100643
-0.111941
-0.128408
-0.149664
-0.174485
-0.201166
-0.228047
-0.25392
-0.278166
-0.30064
-0.32144
-0.340713
-0.358555
-0.374987
-0.389989
-0.403525
-0.415568
-0.426099
-0.435111
-0.4426
-0.448568
-0.453023
-0.455956
-0.457347
-0.457291
-0.455737
-0.452699
-0.448193
-0.442233
-0.43484
-0.426035
-0.415842
-0.404287
-0.391395
-0.377193
-0.361716
-0.345029
-0.327249
-0.308573
-0.289223
-0.269211
-0.247828
-0.223226
-0.193614
-0.161667
-0.137905
-0.132037
-0.13564
-0.0999007
-0.101917
-0.10813
-0.119351
-0.135609
-0.156548
-0.180976
-0.20723
-0.233688
-0.259179
-0.283105
-0.305327
-0.325937
-0.345069
-0.362805
-0.379159
-0.394103
-0.407601
-0.419619
-0.430139
-0.439149
-0.446642
-0.452618
-0.457079
-0.460021
-0.461424
-0.461373
-0.459827
-0.456791
-0.452285
-0.446327
-0.438939
-0.43015
-0.419991
-0.408495
-0.395699
-0.381639
-0.366359
-0.349921
-0.332438
-0.314098
-0.29517
-0.275852
-0.255839
-0.233672
-0.207004
-0.176366
-0.150779
-0.142644
-0.145899
-0.106173
-0.107772
-0.113734
-0.124803
-0.140785
-0.161346
-0.185356
-0.2112
-0.237294
-0.262482
-0.286167
-0.308202
-0.328668
-0.347691
-0.365346
-0.381643
-0.396551
-0.410029
-0.422044
-0.432571
-0.441595
-0.449107
-0.455101
-0.459577
-0.462532
-0.463945
-0.463897
-0.462356
-0.459312
-0.454793
-0.448817
-0.441411
-0.432607
-0.422444
-0.410966
-0.39822
-0.384253
-0.369119
-0.35289
-0.335674
-0.317657
-0.299119
-0.28037
-0.261417
-0.241289
-0.2176
-0.189202
-0.162977
-0.152789
-0.155468
-0.110727
-0.111852
-0.117415
-0.128238
-0.143882
-0.164013
-0.187581
-0.213033
-0.238819
-0.263785
-0.287316
-0.309239
-0.329619
-0.348574
-0.366178
-0.382442
-0.397337
-0.41082
-0.422853
-0.433407
-0.442464
-0.450008
-0.456029
-0.460523
-0.463485
-0.464903
-0.464851
-0.463314
-0.460255
-0.455708
-0.449696
-0.442246
-0.433395
-0.423192
-0.411689
-0.398942
-0.385011
-0.369961
-0.353875
-0.336871
-0.319134
-0.300948
-0.28268
-0.264554
-0.246059
-0.225119
-0.199487
-0.17368
-0.161841
-0.163804
-0.11359
-0.114211
-0.119239
-0.129703
-0.144944
-0.164589
-0.187677
-0.212731
-0.238239
-0.263038
-0.286481
-0.308356
-0.328705
-0.347636
-0.365227
-0.381493
-0.396408
-0.409929
-0.422013
-0.432629
-0.44175
-0.449358
-0.455438
-0.459982
-0.462981
-0.464421
-0.464345
-0.462777
-0.459668
-0.455055
-0.448965
-0.441432
-0.4325
-0.422217
-0.410643
-0.397841
-0.383882
-0.368847
-0.35283
-0.33596
-0.318432
-0.300537
-0.282672
-0.265197
-0.247976
-0.229414
-0.206728
-0.182177
-0.169226
-0.170428
-0.114872
-0.114989
-0.11936
-0.129326
-0.144078
-0.163169
-0.18572
-0.210347
-0.235581
-0.260247
-0.283652
-0.305536
-0.325905
-0.344857
-0.362471
-0.378771
-0.393737
-0.407325
-0.419491
-0.430197
-0.439411
-0.447108
-0.453268
-0.457878
-0.460928
-0.462407
-0.462334
-0.460746
-0.457586
-0.452897
-0.446711
-0.439059
-0.429989
-0.419559
-0.407836
-0.3949
-0.380838
-0.365737
-0.349703
-0.332877
-0.315467
-0.297777
-0.280229
-0.263262
-0.247019
-0.230416
-0.210602
-0.187899
-0.17445
-0.17492
-0.114747
-0.114398
-0.118016
-0.12731
-0.141451
-0.159891
-0.18182
-0.205956
-0.230885
-0.255423
-0.278822
-0.300761
-0.3212
-0.340219
-0.357897
-0.374269
-0.389321
-0.403012
-0.415296
-0.426127
-0.435467
-0.443284
-0.449552
-0.454252
-0.457369
-0.458894
-0.458827
-0.457219
-0.454002
-0.449219
-0.442911
-0.435112
-0.42587
-0.415249
-0.403326
-0.390184
-0.375918
-0.360634
-0.344461
-0.327564
-0.310165
-0.292577
-0.275242
-0.258656
-0.243151
-0.2281
-0.210918
-0.190413
-0.177086
-0.176916
-0.113446
-0.112701
-0.115504
-0.123931
-0.137292
-0.154948
-0.176129
-0.199663
-0.224207
-0.24858
-0.271975
-0.293997
-0.314551
-0.333685
-0.351476
-0.367963
-0.383143
-0.39698
-0.409422
-0.42042
-0.429926
-0.437901
-0.44431
-0.449128
-0.452335
-0.453918
-0.453865
-0.452235
-0.448954
-0.444065
-0.43761
-0.429628
-0.42017
-0.409304
-0.397112
-0.383687
-0.369134
-0.353571
-0.337142
-0.32003
-0.302486
-0.284863
-0.267623
-0.251289
-0.236324
-0.222456
-0.207578
-0.189411
-0.176764
-0.176092
-0.111231
-0.110189
-0.112163
-0.119527
-0.13189
-0.148581
-0.168843
-0.191609
-0.215631
-0.239745
-0.263095
-0.285206
-0.305908
-0.325206
-0.343162
-0.359818
-0.375177
-0.389208
-0.401858
-0.41307
-0.422788
-0.430963
-0.437553
-0.442523
-0.445847
-0.447506
-0.447485
-0.445833
-0.442488
-0.43748
-0.430856
-0.422658
-0.412939
-0.401772
-0.389242
-0.37545
-0.360509
-0.344553
-0.32774
-0.310278
-0.292447
-0.274628
-0.257327
-0.241101
-0.226496
-0.213487
-0.200543
-0.184686
-0.173163
-0.172149
-0.108382
-0.107157
-0.108338
-0.114472
-0.125588
-0.14108
-0.160201
-0.181977
-0.205271
-0.22897
-0.252181
-0.274347
-0.295214
-0.314723
-0.332904
-0.349792
-0.365392
-0.379676
-0.392591
-0.404073
-0.414056
-0.422483
-0.429299
-0.434462
-0.437937
-0.439701
-0.439732
-0.438065
-0.434658
-0.429524
-0.422712
-0.414267
-0.404244
-0.392717
-0.379777
-0.36553
-0.350097
-0.333624
-0.31629
-0.298325
-0.280045
-0.261872
-0.244354
-0.228086
-0.213662
-0.201212
-0.189822
-0.176119
-0.165996
-0.164807
-0.105166
-0.103872
-0.104349
-0.109148
-0.118765
-0.132778
-0.150479
-0.170984
-0.193281
-0.216333
-0.239246
-0.261387
-0.282406
-0.302162
-0.320634
-0.33783
-0.353751
-0.368364
-0.381615
-0.393434
-0.403747
-0.412484
-0.419582
-0.424986
-0.428654
-0.430555
-0.430663
-0.428998
-0.425536
-0.420273
-0.413256
-0.404536
-0.394168
-0.382225
-0.368802
-0.354008
-0.337974
-0.320857
-0.302855
-0.284229
-0.265331
-0.24663
-0.228726
-0.212264
-0.19788
-0.185706
-0.175473
-0.163669
-0.155017
-0.153793
-0.101818
-0.100551
-0.100458
-0.103912
-0.111817
-0.12404
-0.13999
-0.158883
-0.179843
-0.201945
-0.224325
-0.246298
-0.267416
-0.287439
-0.306267
-0.323863
-0.340201
-0.35524
-0.368919
-0.38116
-0.391881
-0.401001
-0.408444
-0.414147
-0.418058
-0.420137
-0.420354
-0.418714
-0.415209
-0.409817
-0.402586
-0.393566
-0.382813
-0.3704
-0.356421
-0.34099
-0.324243
-0.306352
-0.287535
-0.268087
-0.2484
-0.228997
-0.210535
-0.193712
-0.179219
-0.167115
-0.157626
-0.147378
-0.140037
-0.13885
-0.0985251
-0.0973541
-0.0968528
-0.0990545
-0.105119
-0.115254
-0.129077
-0.145959
-0.165177
-0.185948
-0.207481
-0.229071
-0.250183
-0.270462
-0.289704
-0.307799
-0.324674
-0.340261
-0.354484
-0.367255
-0.378482
-0.388071
-0.395938
-0.402009
-0.406222
-0.408529
-0.408895
-0.407311
-0.40378
-0.398268
-0.390816
-0.381478
-0.370305
-0.357369
-0.342764
-0.326606
-0.309038
-0.290246
-0.270472
-0.250045
-0.229406
-0.209135
-0.18995
-0.172602
-0.157819
-0.145647
-0.13648
-0.127366
-0.120955
-0.119748
-0.0954165
-0.0943816
-0.0936415
-0.0947769
-0.0989934
-0.106797
-0.118103
-0.13252
-0.149529
-0.168522
-0.18882
-0.209738
-0.230672
-0.25115
-0.270846
-0.28954
-0.307086
-0.323369
-0.338281
-0.351717
-0.363571
-0.373739
-0.382126
-0.388648
-0.393234
-0.395829
-0.396392
-0.394901
-0.39137
-0.385751
-0.37808
-0.368408
-0.356786
-0.343282
-0.327987
-0.31102
-0.292532
-0.272723
-0.251861
-0.230314
-0.208576
-0.187287
-0.167227
-0.149195
-0.133946
-0.121534
-0.1123
-0.10382
-0.097761
-0.0962508
-0.0925701
-0.0916895
-0.0908641
-0.0911788
-0.0936665
-0.0989971
-0.107421
-0.118888
-0.133169
-0.149881
-0.168495
-0.188383
-0.208901
-0.229469
-0.249618
-0.268998
-0.287356
-0.304499
-0.320271
-0.334537
-0.347168
-0.358048
-0.36707
-0.374143
-0.379188
-0.382143
-0.382961
-0.381612
-0.378111
-0.372407
-0.364526
-0.354514
-0.342422
-0.328314
-0.312279
-0.294436
-0.274947
-0.254027
-0.231973
-0.209193
-0.186237
-0.163805
-0.142736
-0.123869
-0.107975
-0.0950666
-0.0854398
-0.0769664
-0.0705049
-0.0680168
-0.0900181
-0.0893004
-0.0885123
-0.0882648
-0.0892392
-0.0920782
-0.0973273
-0.105372
-0.116381
-0.130272
-0.146714
-0.165168
-0.184976
-0.205464
-0.226019
-0.24614
-0.265435
-0.283608
-0.300428
-0.315708
-0.329291
-0.34104
-0.350837
-0.358581
-0.364186
-0.367585
-0.368728
-0.367581
-0.364148
-0.358391
-0.350319
-0.339974
-0.327405
-0.312674
-0.295868
-0.277111
-0.256571
-0.234482
-0.211171
-0.187089
-0.162835
-0.13917
-0.11698
-0.0971278
-0.0803784
-0.0666655
-0.0563309
-0.047074
-0.0393895
-0.0346458
-0.0877521
-0.08721
-0.0865495
-0.0859636
-0.085673
-0.0861076
-0.0880042
-0.0922218
-0.0994404
-0.109977
-0.123752
-0.140351
-0.159124
-0.179318
-0.200182
-0.22105
-0.241375
-0.260728
-0.278776
-0.295264
-0.309986
-0.322779
-0.333506
-0.342056
-0.348338
-0.352281
-0.353832
-0.352955
-0.349643
-0.343878
-0.335648
-0.324993
-0.311963
-0.296619
-0.279047
-0.259375
-0.237783
-0.214522
-0.189949
-0.164551
-0.138973
-0.114018
-0.0906009
-0.0695916
-0.0517262
-0.0368601
-0.0254421
-0.0144721
-0.00505325
0.00392079
-0.0857151
-0.0853788
-0.0849157
-0.0841431
-0.0827884
-0.0809553
-0.079449
-0.079572
-0.0825857
-0.0893023
-0.0999653
-0.114316
-0.131735
-0.151402
-0.172435
-0.194007
-0.215402
-0.23604
-0.255467
-0.273335
-0.289377
-0.303388
-0.315206
-0.324707
-0.331793
-0.33639
-0.338443
-0.337916
-0.334796
-0.329081
-0.320747
-0.309832
-0.296388
-0.280478
-0.262192
-0.241663
-0.219082
-0.194718
-0.168952
-0.142297
-0.115425
-0.089152
-0.0643881
-0.0419777
-0.0226099
-0.00609829
0.0069918
0.0207401
0.0316621
0.0474942
-0.0837863
-0.0837108
-0.0835032
-0.0825994
-0.0802669
-0.076281
-0.0714346
-0.0673908
-0.0659853
-0.0685815
-0.0758082
-0.0876051
-0.103402
-0.122325
-0.143372
-0.16556
-0.188006
-0.209973
-0.23087
-0.250243
-0.267748
-0.283125
-0.29618
-0.306769
-0.314784
-0.320148
-0.322804
-0.322719
-0.319876
-0.314286
-0.305929
-0.294837
-0.281067
-0.264689
-0.2458
-0.22454
-0.201113
-0.175802
-0.148997
-0.121221
-0.0931377
-0.0655335
-0.0392623
-0.0150889
0.00638654
0.0254076
0.0413783
0.0593605
0.0716984
0.0981597
-0.0817713
-0.0820231
-0.082104
-0.081014
-0.0776478
-0.0715611
-0.0635284
-0.055476
-0.0497266
-0.0481724
-0.0518547
-0.0609483
-0.0749588
-0.092974
-0.11389
-0.136579
-0.160004
-0.183271
-0.205654
-0.226585
-0.245631
-0.26247
-0.276866
-0.28865
-0.297699
-0.30393
-0.307289
-0.307742
-0.305275
-0.299902
-0.291626
-0.280475
-0.266512
-0.249819
-0.230504
-0.208716
-0.184669
-0.158649
-0.131042
-0.102343
-0.0731645
-0.0442068
-0.016202
0.0102326
0.0346628
0.057519
0.0784097
0.103181
0.120182
0.16323
-0.0794565
-0.0800638
-0.0804305
-0.0789898
-0.0743906
-0.0661811
-0.0552037
-0.0435463
-0.0338681
-0.0284855
-0.0288176
-0.0352866
-0.0475004
-0.0645369
-0.0852119
-0.10828
-0.132565
-0.157035
-0.180835
-0.203286
-0.223864
-0.242182
-0.257956
-0.270984
-0.28113
-0.2883
-0.292441
-0.29352
-0.29153
-0.286485
-0.278411
-0.267346
-0.253365
-0.236563
-0.217057
-0.195008
-0.170629
-0.144196
-0.116064
-0.086662
-0.0564964
-0.0261129
0.00395422
0.0333183
0.0617986
0.0901449
0.118363
0.153545
0.183324
0.248015
-0.076946
-0.0777945
-0.0782918
-0.0762458
-0.0701962
-0.0597691
-0.0461033
-0.0314498
-0.0185763
-0.0100437
-0.00755669
-0.0117519
-0.0223511
-0.038454
-0.0588346
-0.0821636
-0.107158
-0.132673
-0.15774
-0.18158
-0.203588
-0.223309
-0.240411
-0.254663
-0.265905
-0.274037
-0.279
-0.280771
-0.279347
-0.274747
-0.267009
-0.256182
-0.242363
-0.225669
-0.206228
-0.184197
-0.159778
-0.133218
-0.10481
-0.0748827
-0.0437799
-0.0118176
0.0207763
0.0539953
0.0880839
0.124234
0.162758
0.212415
0.259919
0.33849
-0.0755253
-0.0762228
-0.0763501
-0.073125
-0.0652449
-0.0525936
-0.0365164
-0.0195231
-0.00439037
0.00638083
0.0108931
0.00836565
-0.00100037
-0.0163435
-0.0364397
-0.0599224
-0.085443
-0.111775
-0.13787
-0.162867
-0.186093
-0.207035
-0.225318
-0.240677
-0.252935
-0.26198
-0.267752
-0.270228
-0.269417
-0.265349
-0.258081
-0.247656
-0.23416
-0.217738
-0.198539
-0.176722
-0.15246
-0.125955
-0.0974192
-0.0670516
-0.0349933
-0.00125129
0.0344061
0.0726458
0.114635
0.162704
0.217921
0.289047
0.349416
0.424391
-0.0796993
-0.0789992
-0.0773893
-0.071779
-0.0612319
-0.0459943
-0.0276707
-0.00886291
0.00764964
0.0196556
0.0253906
0.0238542
0.0152342
0.000369546
-0.0195402
-0.0431267
-0.0690134
-0.0959304
-0.122776
-0.148638
-0.17279
-0.194678
-0.213891
-0.230139
-0.243227
-0.253034
-0.259497
-0.262594
-0.262338
-0.258769
-0.251949
-0.24197
-0.228906
-0.212841
-0.193931
-0.172354
-0.148272
-0.12184
-0.0931881
-0.0623792
-0.0293282
0.00632982
0.0454437
0.0897281
0.142102
0.207789
0.291583
0.403505
0.495773
0.603359
-0.103131
-0.0953099
-0.086863
-0.076074
-0.0617108
-0.0433805
-0.0227277
-0.00233073
0.015363
0.0281429
0.03432
0.0332077
0.0249975
0.0104799
-0.00919139
-0.0326821
-0.0586313
-0.0857651
-0.112962
-0.139282
-0.163968
-0.186433
-0.206241
-0.223079
-0.236737
-0.247084
-0.254048
-0.257608
-0.257775
-0.254593
-0.248126
-0.23846
-0.225694
-0.209935
-0.191311
-0.169959
-0.146029
-0.119644
-0.0908688
-0.0596403
-0.0256557
0.0118291
0.0543286
0.104763
0.168263
0.254322
0.375616
0.555668
0.767639
1.1078
-0.189965
-0.112209
-0.0806203
-0.0713912
-0.0581136
-0.0387412
-0.0170459
0.00395814
0.0217621
0.0341911
0.0398406
0.0382276
0.0296248
0.0148514
-0.00494563
-0.0284687
-0.0544028
-0.0815128
-0.108704
-0.135051
-0.159802
-0.182368
-0.202306
-0.219299
-0.233129
-0.243657
-0.25081
-0.254559
-0.254917
-0.251925
-0.245646
-0.236165
-0.223581
-0.208003
-0.189553
-0.168361
-0.144562
-0.118249
-0.0894312
-0.057948
-0.0233321
0.0154416
0.0603644
0.115178
0.186442
0.286504
0.435253
0.680322
1.07933
1.8285
)
;

boundaryField
{
    movingWall
    {
        type            zeroGradient;
    }
    fixedWalls
    {
        type            zeroGradient;
    }
    frontAndBack
    {
        type            empty;
    }
}


// ************************************************************************* //
