/*--------------------------------*- C++ -*----------------------------------*\
  =========                 |
  \\      /  F ield         | OpenFOAM: The Open Source CFD Toolbox
   \\    /   O peration     | Website:  https://openfoam.org
    \\  /    A nd           | Version:  7
     \\/     M anipulation  |
\*---------------------------------------------------------------------------*/
FoamFile
{
    version     2.0;
    format      ascii;
    class       surfaceScalarField;
    location    "1100";
    object      phi;
}
// * * * * * * * * * * * * * * * * * * * * * * * * * * * * * * * * * * * * * //

dimensions      [0 3 -1 0 0 0 0];

internalField   nonuniform List<scalar> 
4900
(
1.69749e-06
-1.70639e-06
6.22352e-06
-4.52611e-06
1.17166e-05
-5.49312e-06
1.65025e-05
-4.78599e-06
1.97498e-05
-3.24732e-06
2.13887e-05
-1.63894e-06
2.1767e-05
-3.78351e-07
2.12612e-05
5.05689e-07
2.00145e-05
1.2466e-06
1.78628e-05
2.15162e-06
1.44128e-05
3.44993e-06
9.17751e-06
5.23519e-06
1.6658e-06
7.51163e-06
-8.5744e-06
1.02401e-05
-2.18926e-05
1.33181e-05
-3.84514e-05
1.65588e-05
-5.81552e-05
1.97037e-05
-8.05683e-05
2.2413e-05
-0.000104852
2.42837e-05
-0.000129749
2.48973e-05
-0.000153633
2.38832e-05
-0.000174615
2.09824e-05
-0.000190715
1.60997e-05
-0.000200057
9.34204e-06
-0.000201121
1.06381e-06
-0.000192965
-8.15543e-06
-0.000175346
-1.76191e-05
-0.000148785
-2.65615e-05
-0.000114575
-3.42095e-05
-7.47435e-05
-3.98317e-05
-3.19412e-05
-4.28023e-05
1.07161e-05
-4.26574e-05
4.99715e-05
-3.92555e-05
8.29735e-05
-3.3002e-05
0.000107546
-2.45727e-05
0.000122425
-1.4879e-05
0.000127496
-5.07096e-06
0.000123841
3.65539e-06
0.000113456
1.03842e-05
9.87353e-05
1.47211e-05
8.20204e-05
1.67149e-05
6.52494e-05
1.6771e-05
4.97679e-05
1.54814e-05
3.63101e-05
1.34577e-05
2.51035e-05
1.12066e-05
1.60402e-05
9.06323e-06
8.89358e-06
7.14656e-06
3.5944e-06
5.29913e-06
5.05226e-07
3.08913e-06
5.05217e-07
4.47364e-06
-6.18012e-06
1.38476e-05
-1.39003e-05
2.43099e-05
-1.59555e-05
3.2898e-05
-1.33742e-05
3.79999e-05
-8.34941e-06
3.92255e-05
-2.86465e-06
3.68564e-05
1.99047e-06
3.11996e-05
6.16233e-06
2.21467e-05
1.02993e-05
9.06945e-06
1.52286e-05
-9.02931e-06
2.15485e-05
-3.32505e-05
2.94562e-05
-6.44937e-05
3.87547e-05
-0.000103199
4.89448e-05
-0.000149135
5.92545e-05
-0.000201243
6.86665e-05
-0.000257575
7.60355e-05
-0.00031542
8.02584e-05
-0.000371582
8.04451e-05
-0.000422724
7.60391e-05
-0.000465708
6.68674e-05
-0.000497855
5.31297e-05
-0.000517112
3.53566e-05
-0.000522138
1.43681e-05
-0.000512389
-8.68618e-06
-0.000487954
-3.25901e-05
-0.000449472
-5.61014e-05
-0.000398147
-7.78861e-05
-0.000335809
-9.65479e-05
-0.000264929
-0.000110712
-0.000188598
-0.000119133
-0.000110393
-0.000120863
-3.41942e-05
-0.000115454
3.59243e-05
-0.000103121
9.62713e-05
-8.49199e-05
0.000144032
-6.26393e-05
0.000177282
-3.83215e-05
0.000195233
-1.42956e-05
0.000198478
7.13907e-06
0.000189115
2.40843e-05
0.000170291
3.55379e-05
0.000145599
4.14629e-05
0.000118448
4.26328e-05
9.16029e-05
4.03027e-05
6.69313e-05
3.58781e-05
4.54203e-05
3.05741e-05
2.74602e-05
2.51065e-05
1.33355e-05
1.94237e-05
3.75559e-06
1.2669e-05
4.2608e-06
5.98702e-06
-1.21672e-05
1.73364e-05
-2.52499e-05
2.88e-05
-2.74193e-05
3.68196e-05
-2.13939e-05
3.95332e-05
-1.10632e-05
3.63524e-05
3.16032e-07
2.72139e-05
1.11288e-05
1.19103e-05
2.14657e-05
-1.03235e-05
3.25329e-05
-4.07647e-05
4.56696e-05
-8.07729e-05
6.15566e-05
-0.000131271
7.99545e-05
-0.000192325
9.98081e-05
-0.000262829
0.000119449
-0.000340437
0.000136862
-0.000421791
0.000150021
-0.000502974
0.000157219
-0.000580034
0.000157318
-0.000649426
0.000149837
-0.000708287
0.0001349
-0.000754531
0.000113111
-0.000786803
8.54015e-05
-0.000804344
5.28977e-05
-0.000806801
1.68253e-05
-0.000794034
-2.14531e-05
-0.000766061
-6.05638e-05
-0.000723198
-9.89643e-05
-0.000666179
-0.000134905
-0.000596236
-0.000166491
-0.000515214
-0.000191734
-0.000425639
-0.000208708
-0.00033071
-0.000215792
-0.000234208
-0.000211956
-0.000140269
-0.00019706
-5.31225e-05
-0.000172066
2.32659e-05
-0.000139028
8.59245e-05
-0.00010098
0.000133062
-6.14328e-05
0.00016371
-2.35099e-05
0.000178014
9.78063e-06
0.00017751
3.60419e-05
0.000165001
5.39719e-05
0.000144035
6.35987e-05
0.000118294
6.60437e-05
9.10379e-05
6.31338e-05
6.47417e-05
5.68701e-05
4.10644e-05
4.87838e-05
2.12075e-05
3.92805e-05
6.60709e-06
2.72692e-05
1.08679e-05
6.50836e-06
-1.86757e-05
1.75956e-05
-3.63373e-05
2.69493e-05
-3.67732e-05
3.07545e-05
-2.51992e-05
2.72051e-05
-7.51405e-06
1.56079e-05
1.1913e-05
-4.57264e-06
3.13092e-05
-3.43508e-05
5.12437e-05
-7.52497e-05
7.34317e-05
-0.000128746
9.91659e-05
-0.00019557
0.00012838
-0.000275141
0.000159525
-0.000365331
0.000189998
-0.000462653
0.00021677
-0.000562793
0.000237002
-0.000661302
0.00024853
-0.000754203
0.00025012
-0.000838361
0.000241476
-0.000911565
0.000223041
-0.000972408
0.000195743
-0.00102006
0.000160765
-0.00105404
0.000119383
-0.001074
7.28585e-05
-0.00107961
2.24311e-05
-0.00107047
-3.05901e-05
-0.0010463
-8.47352e-05
-0.00100694
-0.000138323
-0.000952452
-0.000189397
-0.00088324
-0.000235703
-0.00080025
-0.000274723
-0.000705117
-0.000303841
-0.000600321
-0.000320588
-0.000489279
-0.000322998
-0.000376268
-0.000310072
-0.000266123
-0.000282211
-0.000163695
-0.000241455
-7.33021e-05
-0.000191373
1.78309e-06
-0.000136518
5.99859e-05
-8.17128e-05
0.000101003
-3.12367e-05
0.00012509
1.1955e-05
0.000133537
4.5525e-05
0.000128849
6.82863e-05
0.000114323
8.05698e-05
9.35411e-05
8.39155e-05
6.98659e-05
8.05453e-05
4.61137e-05
7.25358e-05
2.46351e-05
6.0759e-05
7.92793e-06
4.39763e-05
1.87958e-05
6.20509e-06
-2.48808e-05
1.48943e-05
-4.50267e-05
1.92035e-05
-4.10826e-05
1.54718e-05
-2.14677e-05
2.15244e-06
5.80517e-06
-2.16388e-05
3.57041e-05
-5.70789e-05
6.67491e-05
-0.000105894
0.000100059
-0.000169709
0.000137246
-0.000249085
0.000178542
-0.000342837
0.000222133
-0.000447947
0.000264635
-0.000560034
0.000302085
-0.000674154
0.000330891
-0.000785631
0.000348479
-0.000890643
0.000353542
-0.000986465
0.000345942
-0.00107138
0.000326393
-0.00114443
0.000296091
-0.00120513
0.000256438
-0.00125324
0.000208873
-0.00128861
0.000154756
-0.00131109
9.5337e-05
-0.00132051
3.18496e-05
-0.00131662
-3.44782e-05
-0.00129906
-0.000102291
-0.00126733
-0.000170054
-0.00122085
-0.000235875
-0.00115912
-0.000297438
-0.00108184
-0.000351998
-0.000989252
-0.000396433
-0.000882441
-0.000427399
-0.000763715
-0.000441724
-0.000636778
-0.000437009
-0.000506687
-0.000412302
-0.000379468
-0.000368674
-0.000261325
-0.000309516
-0.000157561
-0.000240283
-7.16992e-05
-0.000167574
-5.18065e-06
-9.77553e-05
4.25365e-05
-3.57623e-05
7.26976e-05
1.53639e-05
8.69059e-05
5.40778e-05
8.76892e-05
7.97864e-05
7.82562e-05
9.33484e-05
6.21187e-05
9.66826e-05
4.27375e-05
9.19169e-05
2.34069e-05
8.00895e-05
7.60276e-06
5.97804e-05
2.63985e-05
4.89817e-06
-2.97791e-05
8.87933e-06
-4.90081e-05
5.28741e-06
-3.74908e-05
-8.92746e-06
-7.25302e-06
-3.51098e-05
3.19873e-05
-7.44223e-05
7.50165e-05
-0.000128584
0.00012091
-0.000199342
0.000170817
-0.000287255
0.000225159
-0.000390798
0.000282085
-0.000506325
0.000337659
-0.000628774
0.000387083
-0.000752694
0.000426006
-0.00087318
0.000451376
-0.000986427
0.000461726
-0.00108988
0.000456992
-0.00118205
0.000438113
-0.00126223
0.000406576
-0.00133023
0.000364085
-0.00138617
0.00031238
-0.00143039
0.000253094
-0.00146329
0.000187653
-0.00148527
0.00011732
-0.00149669
4.32691e-05
-0.00149765
-3.35156e-05
-0.00148789
-0.000112057
-0.00146676
-0.00019118
-0.00143326
-0.000269372
-0.00138602
-0.000344684
-0.00132343
-0.000414586
-0.00124404
-0.000475821
-0.00114698
-0.000524463
-0.00103245
-0.00055625
-0.000902322
-0.00056714
-0.000760545
-0.00055408
-0.000613254
-0.000515965
-0.000468239
-0.000454531
-0.000333754
-0.000374768
-0.000216863
-0.000284466
-0.000121873
-0.000192746
-4.97417e-05
-0.000107894
1.16584e-06
-3.55438e-05
3.34517e-05
2.17918e-05
4.96676e-05
6.35704e-05
5.27723e-05
9.02436e-05
4.618e-05
0.000103275
3.35934e-05
0.000104503
1.88733e-05
9.48096e-05
6.11392e-06
7.25396e-05
3.25124e-05
2.27444e-06
-3.20536e-05
-9.15157e-07
-4.58186e-05
-1.50067e-05
-2.33994e-05
-4.21924e-05
1.99325e-05
-8.36553e-05
7.34501e-05
-0.00014083
0.000132191
-0.000215416
0.000195496
-0.000308091
0.000263493
-0.00041732
0.000334388
-0.000539156
0.000403921
-0.000668053
0.000466556
-0.000798077
0.000517107
-0.000923957
0.000551886
-0.00104167
0.000569093
-0.00114857
0.000568624
-0.00124318
0.000551598
-0.00132491
0.000519845
-0.00139384
0.000475507
-0.00145054
0.000420787
-0.00149594
0.000357778
-0.00153113
0.00028829
-0.00155728
0.000213796
-0.00157545
0.000135496
-0.0015865
5.43126e-05
-0.00159085
-2.91591e-05
-0.00158851
-0.000114396
-0.00157899
-0.000200706
-0.00156111
-0.000287245
-0.00153303
-0.000372769
-0.00149228
-0.000455338
-0.00143602
-0.000532084
-0.00136133
-0.000599147
-0.00126583
-0.000651756
-0.00114845
-0.000684521
-0.0010104
-0.000692131
-0.000855858
-0.000670503
-0.000692238
-0.00061815
-0.000529577
-0.000537428
-0.000378894
-0.00043515
-0.00024967
-0.00032197
-0.000147382
-0.000210181
-7.24921e-05
-0.000110434
-2.16957e-05
-2.90047e-05
9.32889e-06
3.25457e-05
2.444e-05
7.51324e-05
2.74214e-05
0.000100293
2.22302e-05
0.000109694
1.30466e-05
0.000103993
4.21297e-06
8.13731e-05
3.67254e-05
-1.91713e-06
-3.01365e-05
-1.4654e-05
-3.3082e-05
-4.13249e-05
3.27136e-06
-8.3221e-05
6.18285e-05
-0.000141354
0.000131583
-0.000217123
0.000207959
-0.00031131
0.000289683
-0.000422631
0.000374815
-0.000547196
0.000458952
-0.000679199
0.000535924
-0.000812253
0.00059961
-0.000940596
0.000645449
-0.00105978
0.000671071
-0.00116685
0.00067616
-0.00126017
0.000661947
-0.00133921
0.000630641
-0.0014043
0.000584935
-0.00145645
0.000527651
-0.00149715
0.000461488
-0.00152817
0.000388799
-0.00155132
0.000311439
-0.00156831
0.000230791
-0.00158062
0.000147808
-0.00158932
6.30102e-05
-0.00159511
-2.33732e-05
-0.00159828
-0.000111219
-0.00159861
-0.000200378
-0.00159515
-0.000290706
-0.00158621
-0.00038171
-0.00156927
-0.000472279
-0.0015409
-0.000560458
-0.00149685
-0.000643193
-0.00143255
-0.000716057
-0.00134387
-0.000773205
-0.00122821
-0.000807785
-0.00108584
-0.000812872
-0.000921049
-0.000782943
-0.000742697
-0.00071578
-0.000563539
-0.000614308
-0.000397944
-0.000487564
-0.000258306
-0.000349819
-0.000151395
-0.000217345
-7.68561e-05
-0.000103544
-2.92233e-05
-1.50872e-05
-2.06932e-06
4.79783e-05
9.97666e-06
8.82472e-05
1.1732e-05
0.000107939
7.7923e-06
0.000107933
2.60118e-06
8.65641e-05
3.93266e-05
-7.74426e-06
-2.23923e-05
-3.18982e-05
-8.9281e-06
-7.24971e-05
4.38701e-05
-0.000129799
0.00011913
-0.000204626
0.00020641
-0.000297707
0.000301041
-0.000408151
0.000400126
-0.000532448
0.000499112
-0.000664826
0.00059133
-0.000798552
0.00066965
-0.000927313
0.000728371
-0.00104609
0.000764229
-0.00115147
0.00077645
-0.00124156
0.000766251
-0.00131581
0.000736197
-0.00137478
0.000689603
-0.00141988
0.000630038
-0.00145316
0.000560931
-0.00147694
0.00048527
-0.00149354
0.000405401
-0.00150509
0.000322983
-0.00151339
0.000239088
-0.00151985
0.000154266
-0.00152549
6.86578e-05
-0.00153108
-1.77843e-05
-0.00153705
-0.000105251
-0.00154343
-0.000194002
-0.0015498
-0.000284328
-0.00155521
-0.000376306
-0.0015578
-0.000469683
-0.00155461
-0.000563648
-0.00154138
-0.00065643
-0.00151263
-0.000744802
-0.00146212
-0.00082372
-0.00138371
-0.00088619
-0.00127296
-0.000923619
-0.00112896
-0.000926943
-0.000956073
-0.000888671
-0.0007648
-0.000805581
-0.00057103
-0.000681334
-0.000392984
-0.000527866
-0.000246196
-0.000364134
-0.000138405
-0.000211335
-6.7708e-05
-8.5784e-05
-2.5898e-05
6.16807e-06
-4.31199e-06
6.66611e-05
3.87037e-06
9.97565e-05
4.28244e-06
0.000107521
1.7148e-06
8.91317e-05
4.10414e-05
-1.49346e-05
-7.4578e-06
-5.16662e-05
2.78034e-05
-0.00010649
9.86938e-05
-0.000178731
0.000191372
-0.000268741
0.00029642
-0.000375978
0.000408277
-0.000497573
0.000521722
-0.000628131
0.00062967
-0.000760796
0.000723995
-0.00088875
0.000797604
-0.00100633
0.00084595
-0.00110954
0.000867441
-0.00119613
0.000863042
-0.00126546
0.000835575
-0.00131825
0.000788989
-0.00135633
0.000727687
-0.00138225
0.000655951
-0.00139882
0.000577501
-0.00140878
0.00049523
-0.0014145
0.000411122
-0.00141789
0.000326372
-0.00142036
0.000241565
-0.00142292
0.000156828
-0.00142629
7.20259e-05
-0.001431
-1.30779e-05
-0.00143742
-9.88324e-05
-0.0014458
-0.000185624
-0.00145628
-0.000273842
-0.00146873
-0.000363862
-0.00148239
-0.000456023
-0.00149559
-0.000550447
-0.00150534
-0.000646682
-0.00150691
-0.000743226
-0.00149374
-0.000836897
-0.00145779
-0.000922137
-0.00139081
-0.000990602
-0.00128625
-0.0010315
-0.00114183
-0.00103309
-0.000962012
-0.0009854
-0.000759305
-0.000884041
-0.000553286
-0.000733885
-0.000366424
-0.000550995
-0.000217199
-0.00036056
-0.000113343
-0.00018964
-5.01888e-05
-5.69859e-05
-1.63378e-05
3.281e-05
-1.2891e-06
8.47077e-05
2.74891e-06
0.000103482
1.64847e-06
9.0232e-05
4.26898e-05
-2.29892e-05
1.55314e-05
-7.24481e-05
7.72622e-05
-0.000140711
0.000166957
-0.000226265
0.000276926
-0.000328586
0.000398741
-0.000445548
0.000525239
-0.000572483
0.000648657
-0.000702756
0.000759943
-0.000829211
0.00085045
-0.00094554
0.000913933
-0.00104708
0.000947494
-0.0011311
0.000951456
-0.00119672
0.000928666
-0.00124477
0.000883625
-0.0012774
0.000821615
-0.00129761
0.000747892
-0.00130869
0.000667041
-0.00131378
0.000582585
-0.00131543
0.000496883
-0.00131557
0.000411259
-0.00131547
0.000326277
-0.00131591
0.000242006
-0.00131733
0.000158243
-0.00132
7.46921e-05
-0.00132411
-8.96503e-06
-0.00132989
-9.30479e-05
-0.00133767
-0.00017785
-0.00134785
-0.000263655
-0.00136087
-0.000350849
-0.00137696
-0.000439929
-0.00139595
-0.000531461
-0.0014167
-0.000625932
-0.00143649
-0.000723438
-0.00145037
-0.00082301
-0.00145086
-0.000921649
-0.00142821
-0.00101326
-0.00137179
-0.00108792
-0.00127274
-0.00113214
-0.00112735
-0.00113078
-0.000940514
-0.00107088
-0.000727393
-0.000947006
-0.000511986
-0.000766402
-0.00032127
-0.000551276
-0.000175847
-0.000335063
-8.1618e-05
-0.000151215
-2.96178e-05
-1.91903e-05
-5.39419e-06
6.04839e-05
2.49289e-06
9.55952e-05
2.18125e-06
9.05436e-05
4.4871e-05
-3.11661e-05
4.66975e-05
-9.24314e-05
0.000138528
-0.000172425
0.000246951
-0.000268677
0.000373177
-0.000379527
0.000509591
-0.000501292
0.000647004
-0.000627979
0.000775344
-0.000752412
0.000884376
-0.000867748
0.000965787
-0.000968603
0.00101479
-0.00105159
0.00103048
-0.00111545
0.00101532
-0.00116091
0.000974124
-0.0011903
0.000913016
-0.00120701
0.000838326
-0.00121479
0.000755671
-0.00121712
0.000669369
-0.00121679
0.000582254
-0.00121573
0.000495827
-0.00121509
0.000410619
-0.0012154
0.000326582
-0.00121679
0.000243394
-0.00121922
0.000160672
-0.0012226
7.80734e-05
-0.00122688
-4.68044e-06
-0.00123215
-8.77827e-05
-0.00123862
-0.000171373
-0.00124671
-0.000255571
-0.00125698
-0.000340581
-0.00127017
-0.000426737
-0.00128705
-0.000514582
-0.00130806
-0.000604923
-0.00133276
-0.000698736
-0.001359
-0.000796773
-0.0013819
-0.000898743
-0.00139317
-0.00100199
-0.00138124
-0.00109985
-0.00133295
-0.00118043
-0.00123699
-0.00122674
-0.00108847
-0.0012194
-0.00089336
-0.00114212
-0.000670607
-0.000989155
-0.000449597
-0.000772287
-0.000261705
-0.000522954
-0.000127797
-0.000285123
-4.91562e-05
-9.78316e-05
-1.12764e-05
2.2604e-05
2.15813e-06
8.21605e-05
2.88082e-06
8.98207e-05
4.77518e-05
-3.85903e-05
8.52877e-05
-0.000109888
0.000209825
-0.000199148
0.000336211
-0.000302828
0.000476857
-0.000418071
0.000624834
-0.00053992
0.000768853
-0.000661633
0.000897057
-0.000776094
0.000998836
-0.000877221
0.00106691
-0.000960851
0.00109842
-0.00102509
0.00109473
-0.00107032
0.00106055
-0.00109884
0.00100264
-0.00111425
0.000928428
-0.00112068
0.000844758
-0.00112199
0.000756979
-0.00112121
0.000668593
-0.00112036
0.000581402
-0.00112049
0.000495953
-0.00112194
0.000412067
-0.00112462
0.000329267
-0.00112827
0.000247047
-0.0011326
0.000164998
-0.00113736
8.28357e-05
-0.00114243
3.84128e-07
-0.00114778
-8.24323e-05
-0.00115351
-0.000165638
-0.00115986
-0.00024922
-0.00116726
-0.000333189
-0.00117636
-0.000417632
-0.00118812
-0.000502823
-0.00120369
-0.000589356
-0.00122416
-0.000678261
-0.00124994
-0.000770997
-0.00127958
-0.000869097
-0.00130844
-0.000973135
-0.00132742
-0.00108086
-0.00132303
-0.00118482
-0.00127937
-0.00127041
-0.00118266
-0.00131611
-0.00102742
-0.00129735
-0.00082208
-0.0011945
-0.000591007
-0.00100336
-0.000369965
-0.000743996
-0.000193731
-0.000461358
-7.99941e-05
-0.000211568
-2.19502e-05
-3.544e-05
2.46664e-07
5.99635e-05
3.27262e-06
8.67947e-05
5.10245e-05
-4.44943e-05
0.000129782
-0.000123387
0.000288718
-0.000218961
0.000431784
-0.000326539
0.000584435
-0.000442182
0.000740478
-0.000560079
0.00088675
-0.000673281
0.00101026
-0.000775195
0.00110075
-0.000860816
0.00115253
-0.000927401
0.001165
-0.000974664
0.00114199
-0.00100456
0.00109044
-0.00102068
0.00101876
-0.0010274
0.000935148
-0.00102892
0.000846285
-0.0010286
0.000756656
-0.00102859
0.000668585
-0.00102995
0.000582758
-0.0010329
0.000498902
-0.0010372
0.000416372
-0.00104245
0.000334517
-0.00104825
0.000252841
-0.00105428
0.000171027
-0.00106034
8.88985e-05
-0.00106634
6.37963e-06
-0.00107223
-7.6537e-05
-0.00107805
-0.000159821
-0.00108386
-0.000243409
-0.00108983
-0.000327213
-0.00109631
-0.000411157
-0.0011039
-0.000495236
-0.00111361
-0.00057964
-0.00112692
-0.000664955
-0.00114551
-0.000752407
-0.00117061
-0.000843993
-0.00120162
-0.000942127
-0.00123413
-0.00104836
-0.00125815
-0.0011608
-0.00125786
-0.00127069
-0.00121439
-0.00135959
-0.00111184
-0.00139991
-0.000945386
-0.00136095
-0.000728028
-0.00122072
-0.000491709
-0.000980315
-0.000279052
-0.000674014
-0.000125356
-0.000365264
-3.968e-05
-0.000121116
-4.39357e-06
2.4677e-05
3.03099e-06
7.937e-05
5.40554e-05
-4.83075e-05
0.000178089
-0.000131946
0.000372356
-0.000230685
0.000530524
-0.000338721
0.000692471
-0.000451273
0.000853029
-0.000562115
0.000997592
-0.00066454
0.00111268
-0.000752805
0.00118902
-0.000823172
0.0012229
-0.000874394
0.00121623
-0.000907714
0.00117531
-0.000926388
0.00110911
-0.000934815
0.00102719
-0.000937491
0.000937823
-0.000938114
0.000846909
-0.000939117
0.000757659
-0.000941657
0.000671125
-0.000945936
0.000587037
-0.000951621
0.000504588
-0.000958208
0.000422958
-0.000965234
0.000341543
-0.000972373
0.00025998
-0.000979438
0.000178092
-0.000986346
9.58067e-05
-0.000993077
1.3111e-05
-0.000999634
-6.9981e-05
-0.00100602
-0.000153437
-0.00101222
-0.000237209
-0.00101822
-0.000321208
-0.00102406
-0.000405315
-0.00102992
-0.000489381
-0.00103626
-0.000573295
-0.00104408
-0.000657136
-0.00105503
-0.000741458
-0.00107135
-0.000827676
-0.00109512
-0.000918357
-0.00112654
-0.00101694
-0.00116128
-0.00112606
-0.00118801
-0.00124396
-0.00118809
-0.0013595
-0.00113945
-0.00144855
-0.0010249
-0.0014755
-0.000842505
-0.00140311
-0.000612917
-0.0012099
-0.00037788
-0.000909052
-0.000185659
-0.000557486
-6.59157e-05
-0.000240859
-1.23372e-05
-2.89017e-05
2.04039e-06
6.49923e-05
5.60958e-05
-4.97003e-05
0.00022779
-0.000135073
0.000457729
-0.000233896
0.000629347
-0.000339308
0.000797883
-0.000445974
0.000959696
-0.00054765
0.00109927
-0.000638206
0.00120324
-0.000712945
0.00126375
-0.000769457
0.00127941
-0.000807917
0.00125469
-0.00083084
0.00119823
-0.000842332
0.00112061
-0.000847014
0.00103187
-0.000848951
0.00093976
-0.000850959
0.000848916
-0.00085445
0.00076115
-0.000859716
0.000676391
-0.000866399
0.00059372
-0.000873929
0.000512117
-0.000881795
0.000430824
-0.000889659
0.000349407
-0.000897355
0.000267677
-0.000904844
0.000185581
-0.000912154
0.000103116
-0.000919334
2.0291e-05
-0.000926427
-6.28876e-05
-0.000933448
-0.000146417
-0.000940371
-0.000230285
-0.000947123
-0.000314456
-0.000953592
-0.000398846
-0.000959667
-0.000483306
-0.000965339
-0.000567623
-0.000970899
-0.000651575
-0.000977246
-0.000735111
-0.000986195
-0.000818727
-0.0010005
-0.000904048
-0.00102308
-0.000994361
-0.00105481
-0.00109434
-0.00109103
-0.00120774
-0.00111828
-0.00133225
-0.00111431
-0.00145253
-0.00105391
-0.0015359
-0.000920457
-0.00153656
-0.000718487
-0.00141187
-0.000480177
-0.00114736
-0.000258205
-0.000779457
-0.000101477
-0.000397587
-2.37475e-05
-0.000106631
3.07613e-07
4.0937e-05
5.64034e-05
-4.85864e-05
0.000276376
-0.00013274
0.000541883
-0.000228829
0.000725436
-0.000329046
0.000898101
-0.000427785
0.00105843
-0.000519103
0.00119059
-0.000597658
0.00128179
-0.000659875
0.00132597
-0.00070461
0.00132415
-0.000733236
0.00128331
-0.000749149
0.00121414
-0.000756795
0.00112825
-0.000760504
0.00103558
-0.000763553
0.00094281
-0.000767771
0.000853135
-0.000773691
0.00076707
-0.000781028
0.000683728
-0.000789183
0.000601876
-0.000797601
0.000520535
-0.000805917
0.000439141
-0.000813973
0.000357463
-0.000821756
0.00027546
-0.000829331
0.000193156
-0.00083679
0.000110575
-0.000844217
2.77178e-05
-0.000851675
-5.54292e-05
-0.000859194
-0.000138898
-0.000866765
-0.000222714
-0.000874331
-0.000306891
-0.000881766
-0.00039141
-0.000888877
-0.000476196
-0.000895421
-0.00056108
-0.000901212
-0.000645784
-0.000906361
-0.000729963
-0.00091167
-0.000813418
-0.000919114
-0.000896604
-0.000932011
-0.000981464
-0.000954093
-0.00107225
-0.00098665
-0.00117518
-0.00102388
-0.00129502
-0.00104895
-0.00142746
-0.00103512
-0.00154973
-0.000955015
-0.00161667
-0.000795999
-0.00157089
-0.000574221
-0.00136914
-0.000337164
-0.00101651
-0.000146098
-0.000588653
-3.90005e-05
-0.00021373
-2.30708e-06
4.24351e-06
5.40963e-05
-4.50852e-05
0.000321462
-0.000125289
0.000622086
-0.000216215
0.000816363
-0.000309236
0.000991121
-0.000398713
0.00114791
-0.000479232
0.0012711
-0.000546347
0.00134891
-0.000597569
0.00137719
-0.000632842
0.00135942
-0.00065441
0.00130488
-0.000666113
0.00122585
-0.000672278
0.00113442
-0.000676599
0.0010399
-0.000681442
0.000947652
-0.000687758
0.000859451
-0.000695472
0.000774784
-0.000704025
0.000692281
-0.000712823
0.000610674
-0.00072146
0.000529172
-0.000729761
0.000447441
-0.000737721
0.000365423
-0.000745427
0.000283165
-0.000752993
0.000200722
-0.00076053
0.000118112
-0.000768123
3.53107e-05
-0.000775836
-4.77169e-05
-0.000783702
-0.000131032
-0.000791731
-0.000214684
-0.000799899
-0.000298722
-0.000808127
-0.000383183
-0.000816258
-0.000468066
-0.000824034
-0.000553303
-0.000831109
-0.000638708
-0.000837142
-0.00072393
-0.000842073
-0.000808488
-0.000846651
-0.000892026
-0.000853104
-0.000975011
-0.000865419
-0.00105994
-0.000888111
-0.00115249
-0.000922318
-0.00126081
-0.000959746
-0.00139003
-0.000978512
-0.00153096
-0.000946995
-0.00164818
-0.000838236
-0.00167965
-0.000649404
-0.00155797
-0.000414558
-0.00125136
-0.000197734
-0.000805477
-5.87556e-05
-0.000352708
-5.8756e-06
-4.86367e-05
4.82207e-05
-3.94695e-05
0.000360931
-0.000113319
0.000695936
-0.000197096
0.000900139
-0.000281468
0.00107549
-0.000360948
0.00122739
-0.000430782
0.00134094
-0.000487437
0.00140556
-0.000529388
0.00141915
-0.000557404
0.00138744
-0.000574241
0.00132172
-0.000583776
0.00123538
-0.000589881
0.00114052
-0.00059546
0.00104548
-0.000602033
0.000954226
-0.000609904
0.000867322
-0.000618668
0.000783548
-0.00062773
0.000701342
-0.000636629
0.000619572
-0.000645146
0.000537689
-0.000653263
0.000455559
-0.000661075
0.000373235
-0.000668711
0.000290801
-0.000676294
0.000208306
-0.000683926
0.000125743
-0.000691677
4.30623e-05
-0.000699602
-3.97915e-05
-0.000707732
-0.000122902
-0.000716083
-0.000206333
-0.000724652
-0.000290153
-0.000733405
-0.00037443
-0.000742252
-0.000459219
-0.000751016
-0.000544539
-0.000759394
-0.00063033
-0.000766946
-0.000716378
-0.000773193
-0.000802241
-0.000777949
-0.00088727
-0.000782002
-0.000970958
-0.000788003
-0.00105394
-0.000800792
-0.0011397
-0.000825517
-0.00123608
-0.000862108
-0.00135344
-0.000897659
-0.00149541
-0.000903416
-0.00164243
-0.000843992
-0.00173907
-0.00069847
-0.00170349
-0.000482162
-0.00146767
-0.000252301
-0.00103534
-8.31602e-05
-0.000521849
-1.03783e-05
-0.000121419
3.78424e-05
-3.21111e-05
0.000393042
-9.75779e-05
0.000761403
-0.000172656
0.000975218
-0.000247413
0.00115025
-0.000316614
0.00129659
-0.000376235
0.00140056
-0.000423594
0.00145292
-0.000457942
0.00145349
-0.000480588
0.00141008
-0.000494448
0.00133558
-0.000503119
0.00124406
-0.000509833
0.00114724
-0.00051671
0.00105235
-0.000524595
0.000962111
-0.000533394
0.000876121
-0.000542596
0.000792749
-0.000551701
0.000710447
-0.000560424
0.000628296
-0.000568705
0.000545971
-0.000576628
0.000463482
-0.000584331
0.000380937
-0.000591948
0.000298419
-0.000599591
0.000215949
-0.000607343
0.000133495
-0.000615263
5.09822e-05
-0.000623395
-3.16596e-05
-0.000631762
-0.000114534
-0.00064038
-0.000197715
-0.000649254
-0.000281279
-0.000658371
-0.000365313
-0.000667689
-0.000449901
-0.000677111
-0.000535118
-0.000686441
-0.000621
-0.000695332
-0.000707487
-0.000703256
-0.000794316
-0.000709612
-0.000880914
-0.000714145
-0.000966424
-0.000717847
-0.00105024
-0.000724084
-0.00113346
-0.000738759
-0.00122141
-0.000767141
-0.00132506
-0.000805971
-0.00145658
-0.000834849
-0.00161355
-0.000817278
-0.00175664
-0.000718531
-0.00180224
-0.000533363
-0.00165283
-0.000304516
-0.00126418
-0.000111202
-0.000715163
-1.58181e-05
-0.000216803
2.20243e-05
-2.34339e-05
0.000416476
-7.88714e-05
0.000816841
-0.000144095
0.00104044
-0.000208658
0.00121481
-0.000267619
0.00135555
-0.000317678
0.00145062
-0.000356901
0.00149215
-0.000385105
0.0014817
-0.000403854
0.00142883
-0.000415933
0.00134765
-0.00042445
0.00125257
-0.000431937
0.00115472
-0.000439836
0.00106025
-0.000448522
0.000970798
-0.00045771
0.00088531
-0.000466927
0.000801966
-0.00047582
0.00071934
-0.000484259
0.000636736
-0.000492293
0.000554004
-0.000500054
0.000471243
-0.000507688
0.000388571
-0.000515316
0.000306048
-0.000523033
0.000223666
-0.000530909
0.000141371
-0.000538995
5.90687e-05
-0.000547332
-2.33224e-05
-0.000555937
-0.000105929
-0.000564821
-0.000188831
-0.000573987
-0.000272113
-0.000583426
-0.000355874
-0.000593117
-0.00044021
-0.00060301
-0.000525225
-0.000612997
-0.000611013
-0.000622858
-0.000697625
-0.00063219
-0.000784984
-0.000640368
-0.000872736
-0.000646687
-0.000960106
-0.000650932
-0.00104599
-0.000654571
-0.00112982
-0.000662093
-0.00121389
-0.000680525
-0.00130663
-0.000713921
-0.00142318
-0.000752544
-0.00157492
-0.000765526
-0.00174366
-0.000710848
-0.00185692
-0.000564317
-0.00179937
-0.000349338
-0.00147916
-0.000140887
-0.000923615
-2.20928e-05
-0.000335596
-6.85034e-08
-1.38789e-05
0.000430355
-5.79976e-05
0.000860959
-0.000112538
0.00109498
-0.000166618
0.00126889
-0.000215566
0.0014045
-0.00025676
0.00149181
-0.000288886
0.00152427
-0.000312117
0.00150493
-0.000328027
0.00144474
-0.000339053
0.00135868
-0.000347702
0.00126122
-0.000355841
0.00116286
-0.000364375
0.00106879
-0.000373398
0.00097982
-0.000382579
0.000894491
-0.00039155
0.000810937
-0.000400104
0.000727895
-0.000408227
0.000644859
-0.000416025
0.000561802
-0.000423643
0.000478861
-0.000431217
0.000396145
-0.000438851
0.000313681
-0.000446624
0.000231439
-0.000454602
0.00014935
-0.000462837
6.73043e-05
-0.000471371
-1.4788e-05
-0.000480218
-9.70827e-05
-0.000489384
-0.000179665
-0.000498866
-0.000262631
-0.000508653
-0.000346086
-0.000518726
-0.000430137
-0.000529052
-0.000514898
-0.000539573
-0.000600492
-0.000550161
-0.000687038
-0.000560555
-0.00077459
-0.000570275
-0.000863016
-0.000578587
-0.000951794
-0.000584721
-0.00103986
-0.000588694
-0.00112585
-0.00059288
-0.0012097
-0.000603364
-0.00129614
-0.000627809
-0.00139874
-0.00066612
-0.00153661
-0.000697475
-0.00171231
-0.000679763
-0.00187463
-0.000574192
-0.00190494
-0.000383057
-0.0016703
-0.000169638
-0.00113703
-2.94127e-05
-0.000475821
-2.94812e-05
-3.86586e-06
0.000434221
-3.57211e-05
0.000892815
-7.89946e-05
0.00113826
-0.000122494
0.00131239
-0.000161742
0.00144375
-0.000194717
0.00152479
-0.000220593
0.00155015
-0.000239719
0.00152406
-0.000253484
0.00145851
-0.000263836
0.00136903
-0.000272645
0.00127003
-0.000281188
0.0011714
-0.00028998
0.00107758
-0.00029897
0.00098881
-0.000307873
0.000903394
-0.000316443
0.000819507
-0.000324595
0.000736047
-0.000332386
0.00065265
-0.000339945
0.000569361
-0.000347411
0.000486327
-0.000354902
0.000403635
-0.000362508
0.000321288
-0.0003703
0.000239232
-0.000378343
0.000157393
-0.000386699
7.56599e-05
-0.000395413
-6.07387e-06
-0.000404501
-8.79943e-05
-0.000413967
-0.000170198
-0.0004238
-0.000252798
-0.000433982
-0.000335904
-0.00044449
-0.000419629
-0.000455296
-0.000504092
-0.000466359
-0.000589429
-0.000477602
-0.000675795
-0.000488864
-0.000763328
-0.00049982
-0.000852059
-0.000509886
-0.000941728
-0.000518211
-0.00103153
-0.000524061
-0.00112
-0.000528026
-0.00120573
-0.000534026
-0.00129014
-0.000549999
-0.00138277
-0.000582291
-0.00150432
-0.00062139
-0.00167321
-0.000631312
-0.00186471
-0.000564714
-0.00197153
-0.000403787
-0.00183123
-0.000195014
-0.00134581
-3.78412e-05
-0.000632994
-6.73224e-05
6.0678e-06
0.000428153
-1.27103e-05
0.000911593
-4.43544e-05
0.0011699
-7.72781e-05
0.00134532
-0.000107146
0.00147362
-0.000132433
0.00155007
-0.000152688
0.0015704
-0.000168294
0.00153966
-0.000180316
0.00147053
-0.000190138
0.00137885
-0.000199
0.00127889
-0.000207674
0.00118008
-0.000216404
0.00108631
-0.000225091
0.000997497
-0.000233532
0.000911836
-0.000241605
0.00082758
-0.00024931
0.000743753
-0.000256744
0.000660084
-0.000264037
0.000576655
-0.000271314
0.000493605
-0.000278678
0.000411
-0.000286211
0.00032882
-0.000293978
0.000246999
-0.000302044
0.000165459
-0.000310484
8.41e-05
-0.000319353
2.79523e-06
-0.000328677
-7.86704e-05
-0.000338455
-0.00016042
-0.000348668
-0.000242585
-0.000359293
-0.00032528
-0.0003703
-0.000408621
-0.000381661
-0.000492731
-0.000393339
-0.000577751
-0.000405278
-0.000663855
-0.000417375
-0.000751231
-0.000429413
-0.000840021
-0.000440973
-0.000930168
-0.000451338
-0.00102117
-0.000459572
-0.00111177
-0.000465199
-0.00120011
-0.000469982
-0.00128536
-0.000480121
-0.00137263
-0.000504677
-0.00147976
-0.000543881
-0.001634
-0.000571882
-0.00183671
-0.000539299
-0.00200412
-0.000411425
-0.0019591
-0.000215252
-0.00154198
-4.69539e-05
-0.000801292
-0.000114276
1.5314e-05