/*--------------------------------*- C++ -*----------------------------------*\
  =========                 |
  \\      /  F ield         | OpenFOAM: The Open Source CFD Toolbox
   \\    /   O peration     | Website:  https://openfoam.org
    \\  /    A nd           | Version:  7
     \\/     M anipulation  |
\*---------------------------------------------------------------------------*/
FoamFile
{
    version     2.0;
    format      ascii;
    class       volVectorField;
    location    "1100";
    object      U;
}
// * * * * * * * * * * * * * * * * * * * * * * * * * * * * * * * * * * * * * //

dimensions      [0 1 -1 0 0 0 0];

internalField   nonuniform List<vector> 
2500
(
(0.000207163 -0.000201497 0)
(0.00186566 -0.000571131 0)
(0.00447425 -0.000697859 0)
(0.0071632 -0.000600092 0)
(0.00922929 -0.000419017 0)
(0.0104505 -0.000264365 0)
(0.0109302 -0.000188045 0)
(0.0108811 -0.000185932 0)
(0.0104505 -0.000219926 0)
(0.0096339 -0.000245487 0)
(0.00828209 -0.000228726 0)
(0.00616267 -0.000150791 0)
(0.00301833 -2.63942e-06 0)
(-0.00139467 0.000221108 0)
(-0.00728098 0.000523594 0)
(-0.0147732 0.000908363 0)
(-0.0238936 0.00137542 0)
(-0.0345124 0.00191315 0)
(-0.0463116 0.00248832 0)
(-0.0587651 0.00303867 0)
(-0.0711447 0.00347439 0)
(-0.0825566 0.00369087 0)
(-0.0920117 0.00358967 0)
(-0.0985272 0.00310562 0)
(-0.101238 0.00223297 0)
(-0.09947 0.0010297 0)
(-0.0929549 -0.000373404 0)
(-0.0817658 -0.00181065 0)
(-0.0663703 -0.00310846 0)
(-0.0476253 -0.00410001 0)
(-0.0267493 -0.00464035 0)
(-0.00522454 -0.00460677 0)
(0.015423 -0.00393699 0)
(0.0337232 -0.00278587 0)
(0.048369 -0.00137295 0)
(0.0584045 0.000124053 0)
(0.0634491 0.00149542 0)
(0.0637154 0.00253306 0)
(0.0600092 0.00311107 0)
(0.053496 0.00322439 0)
(0.0454076 0.00298627 0)
(0.0368474 0.0025496 0)
(0.0286525 0.00204879 0)
(0.0213431 0.00157448 0)
(0.0151488 0.00117436 0)
(0.0100809 0.000863534 0)
(0.00602975 0.000631338 0)
(0.00290159 0.000436105 0)
(0.000795551 0.000192858 0)
(-8.19835e-05 -8.73832e-05 0)
(0.000566482 -0.00181926 0)
(0.00437397 -0.00431755 0)
(0.00958184 -0.0051172 0)
(0.0146035 -0.00444072 0)
(0.0181609 -0.00299822 0)
(0.0197674 -0.00145759 0)
(0.0194614 -0.000192202 0)
(0.0174543 0.000765931 0)
(0.0138312 0.00162568 0)
(0.00840292 0.0026658 0)
(0.000732723 0.00410358 0)
(-0.00973572 0.00604492 0)
(-0.0235315 0.00849402 0)
(-0.0410171 0.0113838 0)
(-0.0622727 0.0145758 0)
(-0.0869909 0.0178444 0)
(-0.114414 0.020869 0)
(-0.143347 0.0232575 0)
(-0.172267 0.024601 0)
(-0.199495 0.0245425 0)
(-0.223374 0.0228347 0)
(-0.242423 0.019378 0)
(-0.255443 0.0142368 0)
(-0.261579 0.00764371 0)
(-0.260355 -1.157e-05 0)
(-0.251705 -0.00821333 0)
(-0.23582 -0.0163909 0)
(-0.21315 -0.0239898 0)
(-0.184464 -0.0304474 0)
(-0.150847 -0.0352302 0)
(-0.113709 -0.037876 0)
(-0.0747489 -0.0380405 0)
(-0.0358767 -0.0355791 0)
(0.000973819 -0.0306747 0)
(0.0339576 -0.0238261 0)
(0.0613973 -0.0157588 0)
(0.0819756 -0.00729418 0)
(0.094971 0.000685298 0)
(0.100248 0.00733622 0)
(0.0984217 0.0120762 0)
(0.0909457 0.0147077 0)
(0.0796064 0.0154321 0)
(0.0662298 0.0147141 0)
(0.0524141 0.0131073 0)
(0.0393376 0.0111173 0)
(0.0276948 0.00911065 0)
(0.0177743 0.0072492 0)
(0.00968289 0.00543506 0)
(0.00372657 0.00334356 0)
(0.000329351 0.000918669 0)
(0.000785617 -0.004496 0)
(0.00568857 -0.00969583 0)
(0.0117177 -0.0109174 0)
(0.016906 -0.00900548 0)
(0.0197627 -0.00542335 0)
(0.0197108 -0.00146884 0)
(0.016668 0.00215375 0)
(0.010632 0.00542455 0)
(0.00137752 0.00878278 0)
(-0.0116274 0.0127948 0)
(-0.0290958 0.0178468 0)
(-0.0516553 0.0240157 0)
(-0.0796113 0.0310899 0)
(-0.112734 0.0386058 0)
(-0.150149 0.045883 0)
(-0.190382 0.0521028 0)
(-0.231542 0.0564413 0)
(-0.271595 0.0582125 0)
(-0.308616 0.0569704 0)
(-0.340981 0.052549 0)
(-0.367452 0.045047 0)
(-0.387181 0.0347798 0)
(-0.399659 0.0222217 0)
(-0.404628 0.00795279 0)
(-0.402009 -0.00737897 0)
(-0.391774 -0.0230912 0)
(-0.373967 -0.0384703 0)
(-0.34886 -0.0527275 0)
(-0.316932 -0.0650303 0)
(-0.27895 -0.0745404 0)
(-0.236006 -0.0804819 0)
(-0.189539 -0.0822444 0)
(-0.141307 -0.0794987 0)
(-0.0933123 -0.0723007 0)
(-0.0476685 -0.061197 0)
(-0.00637022 -0.0471931 0)
(0.0288595 -0.0315804 0)
(0.0566624 -0.0158067 0)
(0.0763465 -0.00116179 0)
(0.0876387 0.0111576 0)
(0.0908012 0.0202437 0)
(0.0870874 0.0257326 0)
(0.0782024 0.0278563 0)
(0.066036 0.0273042 0)
(0.0523885 0.0249752 0)
(0.038721 0.0217245 0)
(0.0260341 0.0181225 0)
(0.0149682 0.0142398 0)
(0.00625665 0.00958364 0)
(0.000705249 0.00358706 0)
(0.000917703 -0.00772745 0)
(0.00606814 -0.0155931 0)
(0.0115455 -0.0165377 0)
(0.0151624 -0.0124508 0)
(0.0154154 -0.00573206 0)
(0.0117459 0.00170172 0)
(0.00392932 0.00894518 0)
(-0.0083833 0.016107 0)
(-0.0258573 0.0239501 0)
(-0.0493081 0.0332254 0)
(-0.0793731 0.0442128 0)
(-0.11615 0.0565713 0)
(-0.15897 0.0694247 0)
(-0.206379 0.0815502 0)
(-0.25634 0.091619 0)
(-0.306567 0.0984452 0)
(-0.354886 0.10118 0)
(-0.39949 0.0994044 0)
(-0.439048 0.0931039 0)
(-0.472681 0.0825785 0)
(-0.499861 0.0683279 0)
(-0.520294 0.0509538 0)
(-0.533792 0.0310868 0)
(-0.540184 0.00935722 0)
(-0.539304 -0.0135754 0)
(-0.530976 -0.0369736 0)
(-0.515078 -0.0599878 0)
(-0.491577 -0.0816604 0)
(-0.460571 -0.100928 0)
(-0.422385 -0.116645 0)
(-0.377648 -0.12767 0)
(-0.327367 -0.133006 0)
(-0.27301 -0.131963 0)
(-0.216516 -0.124334 0)
(-0.160202 -0.110548 0)
(-0.106548 -0.0917185 0)
(-0.0579016 -0.0695459 0)
(-0.016134 -0.0460326 0)
(0.0175601 -0.023093 0)
(0.0425908 -0.00247026 0)
(0.058896 0.0145989 0)
(0.0667354 0.0271908 0)
(0.0672203 0.0349304 0)
(0.0619059 0.0381591 0)
(0.0525819 0.0377809 0)
(0.0410398 0.0349312 0)
(0.0288305 0.0305676 0)
(0.0171893 0.0250319 0)
(0.00742119 0.0177405 0)
(0.000862098 0.00736626 0)
(0.000999765 -0.0110185 0)
(0.00561045 -0.0208278 0)
(0.00922764 -0.0203475 0)
(0.00967539 -0.0129 0)
(0.00561553 -0.0019329 0)
(-0.00347069 0.0101307 0)
(-0.018048 0.0223905 0)
(-0.0388721 0.0352903 0)
(-0.0668769 0.0497699 0)
(-0.102714 0.0663548 0)
(-0.146282 0.0846723 0)
(-0.196504 0.103491 0)
(-0.251442 0.121081 0)
(-0.308647 0.135647 0)
(-0.365615 0.145704 0)
(-0.420164 0.1503 0)
(-0.47065 0.14907 0)
(-0.515993 0.14214 0)
(-0.555562 0.129962 0)
(-0.589025 0.113154 0)
(-0.616227 0.0923907 0)
(-0.637099 0.0683401 0)
(-0.651562 0.0416291 0)
(-0.659526 0.0128761 0)
(-0.6609 -0.0172531 0)
(-0.655568 -0.0480214 0)
(-0.643299 -0.078584 0)
(-0.623803 -0.10794 0)
(-0.5968 -0.134897 0)
(-0.562073 -0.158091 0)
(-0.519563 -0.176056 0)
(-0.469552 -0.187331 0)
(-0.412858 -0.190658 0)
(-0.350963 -0.185259 0)
(-0.28607 -0.171117 0)
(-0.221011 -0.149165 0)
(-0.158955 -0.121294 0)
(-0.102905 -0.0901068 0)
(-0.055148 -0.0584558 0)
(-0.0168734 -0.0288599 0)
(0.011793 -0.00309475 0)
(0.0312312 0.0176376 0)
(0.0419947 0.0326671 0)
(0.0452875 0.0418396 0)
(0.042629 0.0456933 0)
(0.0357455 0.0452965 0)
(0.0264 0.0417586 0)
(0.0162508 0.0355998 0)
(0.00710984 0.0261578 0)
(0.000796483 0.0113833 0)
(0.000995713 -0.0139233 0)
(0.0041611 -0.0242939 0)
(0.00457905 -0.0208764 0)
(0.000392187 -0.00872289 0)
(-0.00947241 0.00766466 0)
(-0.0255773 0.0256046 0)
(-0.0486656 0.0444956 0)
(-0.0797177 0.0650109 0)
(-0.119448 0.0878069 0)
(-0.167672 0.11257 0)
(-0.223045 0.137845 0)
(-0.283263 0.161477 0)
(-0.34556 0.181247 0)
(-0.407243 0.195378 0)
(-0.466089 0.202798 0)
(-0.520514 0.203162 0)
(-0.569547 0.196696 0)
(-0.612682 0.18398 0)
(-0.649717 0.165751 0)
(-0.680654 0.142793 0)
(-0.705633 0.115872 0)
(-0.724848 0.0856842 0)
(-0.738499 0.0528605 0)
(-0.74679 0.0180216 0)
(-0.749858 -0.0182226 0)
(-0.747685 -0.0552735 0)
(-0.740048 -0.0924403 0)
(-0.726528 -0.128828 0)
(-0.70653 -0.163315 0)
(-0.679277 -0.194524 0)
(-0.643953 -0.220801 0)
(-0.599921 -0.24027 0)
(-0.54695 -0.251032 0)
(-0.485483 -0.251491 0)
(-0.416926 -0.240731 0)
(-0.343818 -0.218904 0)
(-0.269734 -0.187519 0)
(-0.198864 -0.149433 0)
(-0.135258 -0.108417 0)
(-0.0819196 -0.0683474 0)
(-0.040139 -0.0323459 0)
(-0.00954166 -0.00227609 0)
(0.0110396 0.0211298 0)
(0.0227956 0.0375907 0)
(0.0271548 0.0473223 0)
(0.0257808 0.0511065 0)
(0.0204638 0.0499371 0)
(0.0130774 0.0443191 0)
(0.00574902 0.0334774 0)
(0.000590986 0.0148942 0)
(0.000839801 -0.0158643 0)
(0.00148295 -0.0247683 0)
(-0.00259813 -0.0166909 0)
(-0.0126905 0.0014553 0)
(-0.0295786 0.0244116 0)
(-0.0539371 0.049581 0)
(-0.0866655 0.076655 0)
(-0.128523 0.106097 0)
(-0.179384 0.137659 0)
(-0.237818 0.169795 0)
(-0.3013 0.200023 0)
(-0.366796 0.22571 0)
(-0.431393 0.244742 0)
(-0.492725 0.255856 0)
(-0.549137 0.25866 0)
(-0.599633 0.253436 0)
(-0.643738 0.240892 0)
(-0.681352 0.221934 0)
(-0.712649 0.197531 0)
(-0.738028 0.168644 0)
(-0.758022 0.13614 0)
(-0.773199 0.100755 0)
(-0.784134 0.0631242 0)
(-0.791341 0.0237943 0)
(-0.795137 -0.0168033 0)
(-0.795635 -0.0582881 0)
(-0.792758 -0.100208 0)
(-0.786089 -0.141947 0)
(-0.77487 -0.182678 0)
(-0.757993 -0.221236 0)
(-0.734108 -0.256009 0)
(-0.701732 -0.284953 0)
(-0.659445 -0.30571 0)
(-0.606265 -0.315851 0)
(-0.542123 -0.313261 0)
(-0.468292 -0.296713 0)
(-0.387672 -0.266462 0)
(-0.304752 -0.224654 0)
(-0.225066 -0.175307 0)
(-0.154085 -0.123654 0)
(-0.095812 -0.0748854 0)
(-0.0517064 -0.0327975 0)
(-0.0207549 0.000855931 0)
(-0.000749592 0.0259382 0)
(0.0103052 0.0427815 0)
(0.0143119 0.0520078 0)
(0.0132064 0.0544138 0)
(0.00901252 0.0503525 0)
(0.00400053 0.0389265 0)
(0.000362212 0.0174922 0)
(0.000464945 -0.0160967 0)
(-0.00257448 -0.0209707 0)
(-0.0122874 -0.0066132 0)
(-0.0292378 0.0186648 0)
(-0.0539561 0.0492796 0)
(-0.0871939 0.082887 0)
(-0.129675 0.119134 0)
(-0.181407 0.157675 0)
(-0.241067 0.196956 0)
(-0.306066 0.234266 0)
(-0.373167 0.266558 0)
(-0.439202 0.291293 0)
(-0.501568 0.306907 0)
(-0.558421 0.312865 0)
(-0.608646 0.309458 0)
(-0.651738 0.29752 0)
(-0.687673 0.278179 0)
(-0.716805 0.252673 0)
(-0.739789 0.222238 0)
(-0.757478 0.188011 0)
(-0.770786 0.15093 0)
(-0.780603 0.111733 0)
(-0.787757 0.0709789 0)
(-0.792889 0.0290338 0)
(-0.796421 -0.0138901 0)
(-0.798622 -0.0576211 0)
(-0.799569 -0.101995 0)
(-0.798947 -0.146779 0)
(-0.796101 -0.191544 0)
(-0.789991 -0.2355 0)
(-0.779143 -0.277377 0)
(-0.761604 -0.315355 0)
(-0.735086 -0.347009 0)
(-0.697297 -0.369376 0)
(-0.64641 -0.379274 0)
(-0.581672 -0.373876 0)
(-0.504091 -0.351475 0)
(-0.416949 -0.312317 0)
(-0.325823 -0.259229 0)
(-0.237869 -0.197637 0)
(-0.160282 -0.134621 0)
(-0.098244 -0.0770227 0)
(-0.0533186 -0.0293905 0)
(-0.0235823 0.00685752 0)
(-0.00556284 0.0324395 0)
(0.00361297 0.0482865 0)
(0.00645739 0.0552431 0)
(0.00528892 0.0535845 0)
(0.00248742 0.0423747 0)
(0.000209231 0.0191564 0)
(-0.000172041 -0.0137861 0)
(-0.00796656 -0.0118275 0)
(-0.0241236 0.0102066 0)
(-0.048441 0.0435111 0)
(-0.0812367 0.0826476 0)
(-0.123147 0.125398 0)
(-0.174309 0.170833 0)
(-0.233651 0.217354 0)
(-0.298706 0.262111 0)
(-0.36614 0.301652 0)
(-0.432531 0.332914 0)
(-0.494973 0.353885 0)
(-0.551353 0.363761 0)
(-0.600368 0.362765 0)
(-0.641438 0.351842 0)
(-0.674597 0.332368 0)
(-0.700372 0.305915 0)
(-0.719667 0.274071 0)
(-0.733617 0.238296 0)
(-0.743418 0.199804 0)
(-0.750194 0.159507 0)
(-0.754944 0.118041 0)
(-0.75848 0.0757893 0)
(-0.761381 0.0329053 0)
(-0.764087 -0.0105744 0)
(-0.766934 -0.0546647 0)
(-0.770047 -0.0994585 0)
(-0.773316 -0.145033 0)
(-0.776423 -0.191312 0)
(-0.778713 -0.237965 0)
(-0.779011 -0.284296 0)
(-0.775506 -0.329049 0)
(-0.765746 -0.370201 0)
(-0.746726 -0.404855 0)
(-0.715198 -0.429335 0)
(-0.668296 -0.439551 0)
(-0.604442 -0.431708 0)
(-0.524321 -0.40338 0)
(-0.431619 -0.354721 0)
(-0.333156 -0.289388 0)
(-0.237977 -0.214589 0)
(-0.155224 -0.139732 0)
(-0.0912522 -0.0736397 0)
(-0.0474055 -0.0215473 0)
(-0.0204316 0.0157943 0)
(-0.00547386 0.0401064 0)
(0.00120385 0.0527732 0)
(0.00267349 0.0543832 0)
(0.00160584 0.0441994 0)
(0.000183926 0.0201672 0)
(-0.00107278 -0.00816462 0)
(-0.0144171 0.0034103 0)
(-0.0373695 0.0341478 0)
(-0.0690457 0.0760513 0)
(-0.109502 0.124139 0)
(-0.158991 0.175953 0)
(-0.216771 0.229518 0)
(-0.280682 0.281876 0)
(-0.34745 0.329213 0)
(-0.413464 0.367863 0)
(-0.475494 0.395194 0)
(-0.531097 0.409959 0)
(-0.578726 0.412194 0)
(-0.617683 0.402897 0)
(-0.648024 0.383694 0)
(-0.670437 0.356529 0)
(-0.686065 0.3234 0)
(-0.696307 0.286148 0)
(-0.702598 0.246295 0)
(-0.706237 0.204965 0)
(-0.708297 0.162898 0)
(-0.709616 0.120518 0)
(-0.710775 0.077986 0)
(-0.712159 0.0352872 0)
(-0.714096 -0.00766696 0)
(-0.716844 -0.0510261 0)
(-0.72052 -0.0950012 0)
(-0.72523 -0.139799 0)
(-0.731011 -0.185573 0)
(-0.737681 -0.232397 0)
(-0.744674 -0.280147 0)
(-0.750874 -0.328285 0)
(-0.754397 -0.37559 0)
(-0.752411 -0.419891 0)
(-0.741165 -0.457846 0)
(-0.716395 -0.484932 0)
(-0.674115 -0.495879 0)
(-0.611792 -0.485642 0)
(-0.529705 -0.450886 0)
(-0.432049 -0.391678 0)
(-0.327152 -0.312809 0)
(-0.226233 -0.223862 0)
(-0.140483 -0.137196 0)
(-0.0771209 -0.0638345 0)
(-0.0365944 -0.0093211 0)
(-0.0137834 0.0267959 0)
(-0.00262772 0.0471423 0)
(0.00130291 0.053246 0)
(0.0014468 0.0450166 0)
(0.000288205 0.0209448 0)
(-0.00217994 0.00131481 0)
(-0.0214278 0.0250305 0)
(-0.0510233 0.0650717 0)
(-0.0895026 0.115753 0)
(-0.136552 0.172622 0)
(-0.191813 0.232567 0)
(-0.253588 0.292337 0)
(-0.318872 0.347806 0)
(-0.383994 0.39467 0)
(-0.445437 0.429509 0)
(-0.500396 0.450415 0)
(-0.547012 0.457048 0)
(-0.584406 0.450343 0)
(-0.612604 0.432129 0)
(-0.632407 0.404734 0)
(-0.645175 0.370617 0)
(-0.652559 0.332059 0)
(-0.65622 0.290932 0)
(-0.657609 0.248596 0)
(-0.65785 0.205905 0)
(-0.657733 0.163306 0)
(-0.657754 0.120954 0)
(-0.658181 0.078812 0)
(-0.659157 0.0367573 0)
(-0.660802 -0.00537046 0)
(-0.663249 -0.0477545 0)
(-0.666593 -0.0905793 0)
(-0.671032 -0.134033 0)
(-0.676792 -0.178343 0)
(-0.684061 -0.223776 0)
(-0.692898 -0.270573 0)
(-0.703051 -0.318819 0)
(-0.71364 -0.368222 0)
(-0.722814 -0.417748 0)
(-0.727473 -0.46515 0)
(-0.723218 -0.506571 0)
(-0.704713 -0.536471 0)
(-0.666694 -0.548128 0)
(-0.605573 -0.534934 0)
(-0.521301 -0.492464 0)
(-0.418837 -0.420876 0)
(-0.308408 -0.326729 0)
(-0.203736 -0.222902 0)
(-0.117979 -0.125415 0)
(-0.0584589 -0.0473893 0)
(-0.0236465 0.00623236 0)
(-0.00619076 0.037753 0)
(0.000678783 0.050385 0)
(0.00180978 0.0453521 0)
(0.000485796 0.0218723 0)
(-0.00335819 0.0148855 0)
(-0.0283516 0.0528315 0)
(-0.0639656 0.102353 0)
(-0.108203 0.161532 0)
(-0.160269 0.226373 0)
(-0.219092 0.292816 0)
(-0.282149 0.356351 0)
(-0.345924 0.412052 0)
(-0.406714 0.455587 0)
(-0.461354 0.484135 0)
(-0.507615 0.496711 0)
(-0.544343 0.493987 0)
(-0.571442 0.477877 0)
(-0.589742 0.451058 0)
(-0.600764 0.416484 0)
(-0.606386 0.376944 0)
(-0.608488 0.334735 0)
(-0.608676 0.291496 0)
(-0.608133 0.248218 0)
(-0.607608 0.205366 0)
(-0.607489 0.163052 0)
(-0.607918 0.121192 0)
(-0.608888 0.0796194 0)
(-0.610341 0.0381607 0)
(-0.612231 -0.00334761 0)
(-0.614596 -0.0450383 0)
(-0.617496 -0.0870116 0)
(-0.621082 -0.129371 0)
(-0.625594 -0.172278 0)
(-0.631366 -0.215971 0)
(-0.638803 -0.26078 0)
(-0.648261 -0.307118 0)
(-0.659825 -0.355372 0)
(-0.67296 -0.405598 0)
(-0.686033 -0.457025 0)
(-0.695801 -0.507378 0)
(-0.697192 -0.552245 0)
(-0.683715 -0.58482 0)
(-0.648743 -0.596533 0)
(-0.587632 -0.578865 0)
(-0.500207 -0.526269 0)
(-0.39268 -0.439514 0)
(-0.277792 -0.328023 0)
(-0.172112 -0.209273 0)
(-0.0902952 -0.103575 0)
(-0.0383235 -0.0252817 0)
(-0.0113387 0.0229004 0)
(-0.000155457 0.0453606 0)
(0.00229677 0.0453501 0)
(0.000720589 0.0231546 0)
(-0.0044436 0.0323952 0)
(-0.0345362 0.0861486 0)
(-0.0751395 0.144936 0)
(-0.123719 0.211883 0)
(-0.17894 0.283357 0)
(-0.239048 0.354224 0)
(-0.300937 0.418928 0)
(-0.360914 0.472163 0)
(-0.415518 0.509955 0)
(-0.46211 0.530344 0)
(-0.499161 0.533422 0)
(-0.526319 0.520969 0)
(-0.544321 0.495902 0)
(-0.554749 0.461661 0)
(-0.55965 0.421615 0)
(-0.561112 0.378581 0)
(-0.56091 0.334572 0)
(-0.56031 0.290769 0)
(-0.560049 0.247681 0)
(-0.560436 0.205372 0)
(-0.5615 0.16368 0)
(-0.56313 0.122375 0)
(-0.565167 0.0812427 0)
(-0.567457 0.0401168 0)
(-0.569894 -0.00111884 0)
(-0.572479 -0.0425266 0)
(-0.575237 -0.084134 0)
(-0.578224 -0.125959 0)
(-0.581598 -0.168049 0)
(-0.585629 -0.210507 0)
(-0.59072 -0.253555 0)
(-0.59741 -0.297597 0)
(-0.60631 -0.343234 0)
(-0.617902 -0.391169 0)
(-0.632088 -0.441882 0)
(-0.64752 -0.494973 0)
(-0.660862 -0.548166 0)
(-0.666364 -0.596313 0)
(-0.656269 -0.630958 0)
(-0.622476 -0.641201 0)
(-0.559398 -0.616289 0)
(-0.467241 -0.549781 0)
(-0.354308 -0.444116 0)
(-0.236672 -0.313371 0)
(-0.133892 -0.181265 0)
(-0.0609078 -0.0724311 0)
(-0.0200579 -0.00020868 0)
(-0.0022696 0.0369364 0)
(0.00246935 0.0446254 0)
(0.000939949 0.0247523 0)
(-0.00528785 0.0532818 0)
(-0.0394207 0.123923 0)
(-0.0836869 0.191446 0)
(-0.134985 0.26507 0)
(-0.191442 0.341495 0)
(-0.250755 0.414564 0)
(-0.30951 0.477985 0)
(-0.36411 0.526461 0)
(-0.411525 0.556694 0)
(-0.449767 0.567778 0)
(-0.478085 0.561004 0)
(-0.496956 0.539299 0)
(-0.507878 0.506503 0)
(-0.512975 0.4666 0)
(-0.514511 0.42305 0)
(-0.514442 0.378375 0)
(-0.514156 0.334056 0)
(-0.514424 0.290709 0)
(-0.515516 0.248372 0)
(-0.517382 0.206804 0)
(-0.519829 0.165694 0)
(-0.522642 0.124771 0)
(-0.525638 0.0838473 0)
(-0.528675 0.0428051 0)
(-0.531667 0.0015859 0)
(-0.534619 -0.039824 0)
(-0.537548 -0.0814108 0)
(-0.540444 -0.123148 0)
(-0.543366 -0.165001 0)
(-0.546429 -0.206957 0)
(-0.549854 -0.249071 0)
(-0.554034 -0.291542 0)
(-0.559593 -0.334811 0)
(-0.567367 -0.379653 0)
(-0.578209 -0.42713 0)
(-0.592482 -0.478224 0)
(-0.60919 -0.532951 0)
(-0.624897 -0.588965 0)
(-0.633024 -0.640077 0)
(-0.624346 -0.675606 0)
(-0.589255 -0.681684 0)
(-0.521601 -0.64512 0)
(-0.422866 -0.55935 0)
(-0.304662 -0.430463 0)
(-0.187291 -0.279816 0)
(-0.0928391 -0.138953 0)
(-0.0339627 -0.0351917 0)
(-0.00650402 0.0231668 0)
(0.00201192 0.042308 0)
(0.00111639 0.0264152 0)
(-0.00576965 0.0766397 0)
(-0.0425927 0.164822 0)
(-0.0890345 0.240338 0)
(-0.141386 0.319322 0)
(-0.197296 0.398889 0)
(-0.2541 0.472037 0)
(-0.308323 0.532074 0)
(-0.356668 0.574051 0)
(-0.396662 0.595581 0)
(-0.427032 0.596964 0)
(-0.447817 0.580747 0)
(-0.460242 0.550946 0)
(-0.466367 0.512121 0)
(-0.46856 0.468477 0)
(-0.468964 0.423223 0)
(-0.46914 0.378314 0)
(-0.469953 0.334589 0)
(-0.471685 0.292119 0)
(-0.474245 0.250595 0)
(-0.477384 0.209618 0)
(-0.480841 0.168854 0)
(-0.484419 0.12808 0)
(-0.487994 0.0871719 0)
(-0.491489 0.0460715 0)
(-0.494869 0.00476211 0)
(-0.498164 -0.0367483 0)
(-0.501403 -0.0784357 0)
(-0.504554 -0.120271 0)
(-0.50761 -0.162201 0)
(-0.510566 -0.20416 0)
(-0.51346 -0.246089 0)
(-0.516432 -0.287981 0)
(-0.519822 -0.329987 0)
(-0.524276 -0.372574 0)
(-0.530804 -0.416691 0)
(-0.540629 -0.463788 0)
(-0.554596 -0.515411 0)
(-0.572023 -0.572021 0)
(-0.589221 -0.631007 0)
(-0.598512 -0.684551 0)
(-0.588948 -0.718862 0)
(-0.549498 -0.71639 0)
(-0.474207 -0.661706 0)
(-0.367299 -0.549894 0)
(-0.24531 -0.394005 0)
(-0.133337 -0.226067 0)
(-0.0540391 -0.085833 0)
(-0.0133504 0.00163428 0)
(0.000772707 0.0372175 0)
(0.00125377 0.0277845 0)
(-0.00581347 0.101335 0)
(-0.0438201 0.207365 0)
(-0.0909187 0.290034 0)
(-0.142753 0.372989 0)
(-0.196595 0.453959 0)
(-0.24961 0.525346 0)
(-0.298463 0.580378 0)
(-0.340291 0.614723 0)
(-0.373241 0.627083 0)
(-0.396758 0.619046 0)
(-0.411592 0.594387 0)
(-0.41954 0.558045 0)
(-0.422948 0.514999 0)
(-0.424117 0.46933 0)
(-0.424823 0.423707 0)
(-0.426102 0.379386 0)
(-0.428318 0.33658 0)
(-0.431385 0.294951 0)
(-0.43502 0.254008 0)
(-0.438929 0.213334 0)
(-0.442894 0.172661 0)
(-0.4468 0.131853 0)
(-0.450603 0.0908562 0)
(-0.454294 0.0496581 0)
(-0.457878 0.00826115 0)
(-0.461415 -0.033325 0)
(-0.464944 -0.0750854 0)
(-0.46844 -0.117012 0)
(-0.471875 -0.159069 0)
(-0.475199 -0.2012 0)
(-0.478349 -0.243315 0)
(-0.481279 -0.285304 0)
(-0.48403 -0.327098 0)
(-0.486855 -0.368787 0)
(-0.490403 -0.410847 0)
(-0.495844 -0.454416 0)
(-0.50476 -0.501408 0)
(-0.518456 -0.554021 0)
(-0.536459 -0.613101 0)
(-0.554522 -0.675309 0)
(-0.563389 -0.730218 0)
(-0.550079 -0.759697 0)
(-0.502555 -0.741893 0)
(-0.416503 -0.660255 0)
(-0.30104 -0.515008 0)
(-0.179308 -0.331202 0)
(-0.0805123 -0.15485 0)
(-0.023157 -0.0304606 0)
(-0.00128175 0.0280222 0)
(0.0013715 0.0284831 0)
(-0.00539611 0.126126 0)
(-0.0430467 0.250045 0)
(-0.0893588 0.339046 0)
(-0.139295 0.424648 0)
(-0.189871 0.505495 0)
(-0.238248 0.573679 0)
(-0.281379 0.62262 0)
(-0.316904 0.648802 0)
(-0.343598 0.652125 0)
(-0.361552 0.635471 0)
(-0.372077 0.603724 0)
(-0.377303 0.56249 0)
(-0.379585 0.516843 0)
(-0.380921 0.470436 0)
(-0.382594 0.425232 0)
(-0.385137 0.381788 0)
(-0.388532 0.339824 0)
(-0.392496 0.298765 0)
(-0.396706 0.258086 0)
(-0.400925 0.217449 0)
(-0.405028 0.17669 0)
(-0.408986 0.135756 0)
(-0.412823 0.0946458 0)
(-0.416568 0.0533705 0)
(-0.420247 0.0119338 0)
(-0.423931 -0.0296646 0)
(-0.427672 -0.0714241 0)
(-0.431454 -0.11336 0)
(-0.435253 -0.155468 0)
(-0.439026 -0.197721 0)
(-0.442694 -0.240059 0)
(-0.44614 -0.282372 0)
(-0.44924 -0.324507 0)
(-0.451938 -0.366318 0)
(-0.454402 -0.407827 0)
(-0.457276 -0.449532 0)
(-0.461897 -0.492824 0)
(-0.470237 -0.540203 0)
(-0.484028 -0.594613 0)
(-0.502756 -0.657078 0)
(-0.52104 -0.722654 0)
(-0.52737 -0.776701 0)
(-0.506611 -0.7952 0)
(-0.446803 -0.752014 0)
(-0.347669 -0.632493 0)
(-0.225952 -0.448146 0)
(-0.112329 -0.242548 0)
(-0.0364002 -0.076115 0)
(-0.00422523 0.0132212 0)
(0.00146102 0.0281014 0)
(-0.00454226 0.149771 0)
(-0.0403653 0.291424 0)
(-0.0845971 0.386051 0)
(-0.131496 0.473154 0)
(-0.177933 0.552666 0)
(-0.221204 0.616651 0)
(-0.258635 0.65894 0)
(-0.288393 0.676963 0)
(-0.309822 0.671853 0)
(-0.323538 0.647712 0)
(-0.331214 0.610339 0)
(-0.335069 0.565721 0)
(-0.337248 0.518724 0)
(-0.339319 0.47238 0)
(-0.342073 0.427911 0)
(-0.34565 0.385281 0)
(-0.349813 0.343888 0)
(-0.354227 0.30308 0)
(-0.358627 0.262404 0)
(-0.362873 0.221636 0)
(-0.366931 0.18071 0)
(-0.370836 0.139635 0)
(-0.374648 0.0984359 0)
(-0.378412 0.0571254 0)
(-0.382152 0.0156984 0)
(-0.385936 -0.0258586 0)
(-0.389823 -0.067557 0)
(-0.393804 -0.10943 0)
(-0.397864 -0.151496 0)
(-0.40198 -0.193761 0)
(-0.406098 -0.236208 0)
(-0.410115 -0.278778 0)
(-0.413876 -0.321341 0)
(-0.417191 -0.363694 0)
(-0.419912 -0.405612 0)
(-0.422134 -0.447049 0)
(-0.424523 -0.488567 0)
(-0.428651 -0.531941 0)
(-0.436925 -0.58047 0)
(-0.451405 -0.637926 0)
(-0.471061 -0.704958 0)
(-0.488496 -0.77337 0)
(-0.489189 -0.821945 0)
(-0.456247 -0.819341 0)
(-0.380058 -0.736938 0)
(-0.267943 -0.568406 0)
(-0.146922 -0.345978 0)
(-0.0533961 -0.137543 0)
(-0.00822332 -0.00881879 0)
(0.00147436 0.0261834 0)
(-0.00331457 0.171129 0)
(-0.0359779 0.330206 0)
(-0.0770264 0.42994 0)
(-0.12 0.517648 0)
(-0.161726 0.594966 0)
(-0.199721 0.654204 0)
(-0.231733 0.689753 0)
(-0.256423 0.700052 0)
(-0.273611 0.68743 0)
(-0.284278 0.65707 0)
(-0.290251 0.615452 0)
(-0.293638 0.568668 0)
(-0.29624 0.521164 0)
(-0.299169 0.475267 0)
(-0.302815 0.43153 0)
(-0.307067 0.38948 0)
(-0.311609 0.348358 0)
(-0.31615 0.307548 0)
(-0.32052 0.266715 0)
(-0.324672 0.225747 0)
(-0.328638 0.184651 0)
(-0.332486 0.143466 0)
(-0.336286 0.102219 0)
(-0.340083 0.0609153 0)
(-0.343888 0.0195349 0)
(-0.347759 -0.0219476 0)
(-0.351761 -0.0635514 0)
(-0.355888 -0.105322 0)
(-0.360125 -0.147289 0)
(-0.364467 -0.189482 0)
(-0.368885 -0.231918 0)
(-0.373319 -0.274589 0)
(-0.377652 -0.317434 0)
(-0.381697 -0.360303 0)
(-0.385202 -0.402934 0)
(-0.387944 -0.445012 0)
(-0.389971 -0.486438 0)
(-0.39204 -0.527941 0)
(-0.396059 -0.571927 0)
(-0.404942 -0.622802 0)
(-0.420848 -0.685084 0)
(-0.441382 -0.75777 0)
(-0.455863 -0.8266 0)
(-0.446267 -0.86076 0)
(-0.395645 -0.821419 0)
(-0.300732 -0.683132 0)
(-0.180746 -0.459466 0)
(-0.0735969 -0.215098 0)
(-0.0135227 -0.0398829 0)
(0.00138992 0.0222483 0)
(-0.00180198 0.18922 0)
(-0.0301559 0.365275 0)
(-0.0671202 0.469829 0)
(-0.105519 0.557533 0)
(-0.142204 0.632157 0)
(-0.174969 0.686504 0)
(-0.201985 0.71562 0)
(-0.222347 0.718941 0)
(-0.236228 0.699896 0)
(-0.244805 0.66457 0)
(-0.249879 0.619887 0)
(-0.253308 0.571827 0)
(-0.256497 0.524295 0)
(-0.260158 0.478939 0)
(-0.264399 0.435765 0)
(-0.268989 0.39403 0)
(-0.273629 0.352938 0)
(-0.278112 0.311972 0)
(-0.282361 0.270919 0)
(-0.286396 0.229754 0)
(-0.290284 0.188524 0)
(-0.2941 0.147273 0)
(-0.297914 0.106021 0)
(-0.301761 0.0647572 0)
(-0.305641 0.0234491 0)
(-0.309599 -0.017939 0)
(-0.313706 -0.0594305 0)
(-0.317961 -0.10108 0)
(-0.32234 -0.142925 0)
(-0.326846 -0.185004 0)
(-0.331466 -0.227355 0)
(-0.336171 -0.270005 0)
(-0.340893 -0.312955 0)
(-0.345503 -0.356139 0)
(-0.349782 -0.399373 0)
(-0.353422 -0.442319 0)
(-0.356135 -0.484562 0)
(-0.357972 -0.525999 0)
(-0.359896 -0.567729 0)
(-0.364327 -0.613202 0)
(-0.374716 -0.668298 0)
(-0.392744 -0.737689 0)
(-0.413221 -0.816049 0)
(-0.42078 -0.878689 0)
(-0.394549 -0.882486 0)
(-0.321428 -0.784821 0)
(-0.210236 -0.575951 0)
(-0.0954047 -0.306741 0)
(-0.0203475 -0.0816471 0)
(0.00124993 0.0158126 0)
(-0.000108676 0.203267 0)
(-0.0232059 0.395706 0)
(-0.0553764 0.505045 0)
(-0.0887523 0.59243 0)
(-0.120254 0.664192 0)
(-0.147966 0.713851 0)
(-0.170462 0.737139 0)
(-0.187185 0.734425 0)
(-0.198533 0.710096 0)
(-0.205726 0.670943 0)
(-0.210399 0.624127 0)
(-0.214085 0.575378 0)
(-0.217809 0.52803 0)
(-0.221975 0.483139 0)
(-0.226523 0.440316 0)
(-0.231198 0.398672 0)
(-0.235765 0.357457 0)
(-0.240105 0.316268 0)
(-0.24421 0.274995 0)
(-0.24814 0.233669 0)
(-0.251971 0.192353 0)
(-0.255775 0.151081 0)
(-0.259613 0.109858 0)
(-0.263514 0.0686612 0)
(-0.267471 0.0274463 0)
(-0.271511 -0.0138309 0)
(-0.275721 -0.0551956 0)
(-0.280105 -0.0967122 0)
(-0.284624 -0.138421 0)
(-0.289283 -0.180369 0)
(-0.294075 -0.222601 0)
(-0.298983 -0.265165 0)
(-0.303975 -0.308098 0)
(-0.308975 -0.351405 0)
(-0.313837 -0.395006 0)
(-0.318302 -0.438661 0)
(-0.322005 -0.481926 0)
(-0.324617 -0.524281 0)
(-0.326277 -0.565742 0)
(-0.328344 -0.608168 0)
(-0.333963 -0.656696 0)
(-0.346944 -0.718865 0)
(-0.367285 -0.797599 0)
(-0.384914 -0.878224 0)
(-0.379033 -0.920135 0)
(-0.329096 -0.868361 0)
(-0.232637 -0.688423 0)
(-0.116663 -0.408482 0)
(-0.0286978 -0.13526 0)
(0.00111684 0.00636469 0)
(0.00165565 0.212711 0)
(-0.0154442 0.420769 0)
(-0.0422772 0.535097 0)
(-0.0703443 0.622132 0)
(-0.0966477 0.69115 0)
(-0.119548 0.736593 0)
(-0.13798 0.754869 0)
(-0.15165 0.747166 0)
(-0.161058 0.71866 0)
(-0.167338 0.676656 0)
(-0.171872 0.628403 0)
(-0.175843 0.579308 0)
(-0.17995 0.532184 0)
(-0.184382 0.487615 0)
(-0.189007 0.444945 0)
(-0.193599 0.403241 0)
(-0.198 0.361827 0)
(-0.202163 0.320409 0)
(-0.206126 0.27895 0)
(-0.209962 0.237511 0)
(-0.213745 0.196153 0)
(-0.217538 0.154896 0)
(-0.221392 0.11373 0)
(-0.225338 0.0726227 0)
(-0.229363 0.0315222 0)
(-0.233476 -0.00962475 0)
(-0.237784 -0.0508432 0)
(-0.242303 -0.0922102 0)
(-0.246974 -0.13377 0)
(-0.2518 -0.175573 0)
(-0.256774 -0.21767 0)
(-0.261884 -0.260116 0)
(-0.267109 -0.302968 0)
(-0.272411 -0.346274 0)
(-0.277701 -0.390036 0)
(-0.282803 -0.434138 0)
(-0.287412 -0.478248 0)
(-0.291102 -0.521774 0)
(-0.293546 -0.564129 0)
(-0.295121 -0.605728 0)
(-0.297869 -0.649896 0)
(-0.305828 -0.704273 0)
(-0.322455 -0.777345 0)
(-0.343781 -0.865604 0)
(-0.352645 -0.937097 0)
(-0.32454 -0.931365 0)
(-0.246432 -0.791014 0)
(-0.13532 -0.515272 0)
(-0.0381838 -0.200494 0)
(0.000968348 -0.00656448 0)
(0.00338507 0.217242 0)
(-0.00717989 0.439876 0)
(-0.0282713 0.559639 0)
(-0.0508578 0.646552 0)
(-0.0720236 0.713176 0)
(-0.0903639 0.755075 0)
(-0.105128 0.769288 0)
(-0.116203 0.757674 0)
(-0.124088 0.726016 0)
(-0.129738 0.681972 0)
(-0.134231 0.632774 0)
(-0.138415 0.58351 0)
(-0.142727 0.536557 0)
(-0.147222 0.492154 0)
(-0.151755 0.449491 0)
(-0.156158 0.407638 0)
(-0.160344 0.366008 0)
(-0.164317 0.324388 0)
(-0.168137 0.282788 0)
(-0.171878 0.241282 0)
(-0.175606 0.199919 0)
(-0.179372 0.158706 0)
(-0.183224 0.117621 0)
(-0.187197 0.0766258 0)
(-0.191275 0.0356642 0)
(-0.195445 -0.00532564 0)
(-0.199842 -0.0463719 0)
(-0.204503 -0.087564 0)
(-0.209339 -0.128954 0)
(-0.214354 -0.170594 0)
(-0.219536 -0.212538 0)
(-0.224874 -0.254846 0)
(-0.230353 -0.297583 0)
(-0.235946 -0.34082 0)
(-0.241601 -0.384611 0)
(-0.247209 -0.428938 0)
(-0.252553 -0.473612 0)
(-0.257262 -0.518152 0)
(-0.260862 -0.56179 0)
(-0.26312 -0.604018 0)
(-0.264914 -0.646254 0)
(-0.269333 -0.694439 0)
(-0.28116 -0.759254 0)
(-0.301584 -0.846788 0)
(-0.319343 -0.937767 0)
(-0.309792 -0.973906 0)
(-0.251373 -0.879606 0)
(-0.149895 -0.621982 0)
(-0.048075 -0.275588 0)
(0.00066417 -0.0234195 0)
(0.00493809 0.216673 0)
(0.00128186 0.452687 0)
(-0.0137579 0.578416 0)
(-0.0307737 0.665676 0)
(-0.0468953 0.730434 0)
(-0.0609018 0.769596 0)
(-0.0723075 0.780766 0)
(-0.0811118 0.766308 0)
(-0.0877378 0.732432 0)
(-0.0929016 0.687009 0)
(-0.0973544 0.63721 0)
(-0.10164 0.587845 0)
(-0.105992 0.54097 0)
(-0.110392 0.496599 0)
(-0.114718 0.453843 0)
(-0.118866 0.411807 0)
(-0.122807 0.369975 0)
(-0.126577 0.328195 0)
(-0.130242 0.286502 0)
(-0.133873 0.24497 0)
(-0.137525 0.203634 0)
(-0.141242 0.162491 0)
(-0.145069 0.121509 0)
(-0.149047 0.0806499 0)
(-0.153162 0.0398575 0)
(-0.157371 -0.000938035 0)
(-0.161843 -0.0417821 0)
(-0.166646 -0.0827639 0)
(-0.17166 -0.123953 0)
(-0.176882 -0.165403 0)
(-0.182302 -0.207172 0)
(-0.187904 -0.249318 0)
(-0.193674 -0.291912 0)
(-0.199592 -0.335037 0)
(-0.205623 -0.378777 0)
(-0.211694 -0.423182 0)
(-0.21766 -0.46818 0)
(-0.223243 -0.513448 0)
(-0.228005 -0.558287 0)
(-0.231463 -0.601785 0)
(-0.233668 -0.643932 0)
(-0.236407 -0.688335 0)
(-0.244119 -0.745055 0)
(-0.261182 -0.826455 0)
(-0.282776 -0.9271 0)
(-0.287506 -0.997913 0)
(-0.248231 -0.951951 0)
(-0.159649 -0.724113 0)
(-0.0575383 -0.35778 0)
(-5.14975e-06 -0.0446259 0)
(0.00615984 0.211232 0)
(0.00957802 0.45876 0)
(0.000938212 0.591335 0)
(-0.0104922 0.679514 0)
(-0.0216691 0.743078 0)
(-0.0315173 0.780388 0)
(-0.0397786 0.789561 0)
(-0.0465143 0.773292 0)
(-0.0520215 0.738045 0)
(-0.0567442 0.691794 0)
(-0.0611072 0.641634 0)
(-0.0653797 0.59218 0)
(-0.0696377 0.545284 0)
(-0.073828 0.500837 0)
(-0.077868 0.457929 0)
(-0.0817149 0.415707 0)
(-0.0853838 0.373708 0)
(-0.0889291 0.331815 0)
(-0.0924181 0.290074 0)
(-0.0959127 0.248551 0)
(-0.0994621 0.207273 0)