/*--------------------------------*- C++ -*----------------------------------*\
  =========                 |
  \\      /  F ield         | OpenFOAM: The Open Source CFD Toolbox
   \\    /   O peration     | Website:  https://openfoam.org
    \\  /    A nd           | Version:  7
     \\/     M anipulation  |
\*---------------------------------------------------------------------------*/
FoamFile
{
    version     2.0;
    format      ascii;
    class       volScalarField;
    location    "100";
    object      p;
}
// * * * * * * * * * * * * * * * * * * * * * * * * * * * * * * * * * * * * * //

dimensions      [0 2 -2 0 0 0 0];

internalField   nonuniform List<scalar> 
2500
(
1.2289e-05
9.53741e-05
1.28032e-05
-0.000289804
-0.000764474
-0.00135167
-0.00201337
-0.00274594
-0.00357517
-0.00454111
-0.00568276
-0.00702924
-0.00859692
-0.0103845
-0.0123674
-0.0144898
-0.0166574
-0.0187358
-0.0205556
-0.0219285
-0.0226705
-0.0226295
-0.0217131
-0.0199155
-0.017337
-0.0141835
-0.0107548
-0.00745218
-0.00474131
-0.00308694
-0.00287527
-0.0043313
-0.00743094
-0.0119318
-0.0174316
-0.0233999
-0.0292908
-0.0346535
-0.0392031
-0.0428185
-0.0455096
-0.0473825
-0.0485952
-0.049317
-0.0496999
-0.0498632
-0.0498891
-0.0498238
-0.0496919
-0.0495534
-3.83458e-05
3.36147e-05
-5.62174e-05
-0.000356643
-0.000809153
-0.0013526
-0.00195402
-0.00261587
-0.00336658
-0.00424589
-0.00529148
-0.00653275
-0.00799021
-0.00967035
-0.0115606
-0.0136229
-0.0157842
-0.0179299
-0.0199035
-0.0215155
-0.0225654
-0.0228717
-0.022305
-0.0208202
-0.0184842
-0.0154848
-0.0121315
-0.00884767
-0.00611623
-0.00442127
-0.00416669
-0.00559117
-0.00870184
-0.0132518
-0.0187616
-0.0247077
-0.0305461
-0.0357848
-0.0401116
-0.0434313
-0.0458203
-0.0474384
-0.0484703
-0.0490868
-0.0494266
-0.0495911
-0.0496463
-0.0496248
-0.0495296
-0.0493987
1.99545e-05
8.25839e-05
-3.11671e-05
-0.000354946
-0.000805763
-0.00131071
-0.00184149
-0.00241187
-0.00306219
-0.00383926
-0.00478715
-0.00594612
-0.00735462
-0.00904657
-0.0110405
-0.013323
-0.0158307
-0.0184383
-0.0209593
-0.0231624
-0.0248011
-0.025651
-0.0255462
-0.0244144
-0.0223137
-0.019444
-0.0161187
-0.0127529
-0.00983764
-0.00787642
-0.0073044
-0.00839959
-0.0112111
-0.0155279
-0.0209089
-0.0267703
-0.0325027
-0.0376294
-0.0418133
-0.0449127
-0.046993
-0.0482645
-0.0489756
-0.0493361
-0.0494975
-0.0495563
-0.0495652
-0.049538
-0.0494466
-0.0493036
0.000275745
0.000304005
0.000133577
-0.000246166
-0.00071785
-0.00119656
-0.00166336
-0.00215058
-0.00271879
-0.00343872
-0.00438457
-0.00563657
-0.00727941
-0.00938799
-0.0120012
-0.0150937
-0.0185571
-0.0221981
-0.025757
-0.02894
-0.0314587
-0.033067
-0.0335908
-0.0329516
-0.0311925
-0.0284899
-0.0251285
-0.021505
-0.0181041
-0.0154448
-0.0140065
-0.0141411
-0.0159906
-0.0194374
-0.0241123
-0.0294589
-0.0348521
-0.0397358
-0.043733
-0.0466915
-0.0486152
-0.0496614
-0.0500869
-0.0501549
-0.05006
-0.0499215
-0.0497981
-0.049697
-0.0495701
-0.0494072
0.000763789
0.00072252
0.000459424
3.14079e-06
-0.00050125
-0.000972982
-0.00140787
-0.00186625
-0.00244882
-0.00327764
-0.00448991
-0.00623177
-0.00863759
-0.0117948
-0.0157079
-0.020277
-0.0252992
-0.0304905
-0.0355217
-0.0400564
-0.0437864
-0.0464583
-0.0478935
-0.0480014
-0.0467929
-0.0443886
-0.0410198
-0.0370423
-0.0329065
-0.0291231
-0.0262056
-0.0245936
-0.0245677
-0.0261779
-0.0292141
-0.0332346
-0.0376598
-0.0419052
-0.0455094
-0.0482166
-0.049987
-0.0509431
-0.0512588
-0.0511625
-0.0508798
-0.0505641
-0.0502978
-0.0501017
-0.0499288
-0.0497551
0.00152493
0.00138021
0.00100216
0.000461722
-9.63987e-05
-0.000602823
-0.00108474
-0.00165503
-0.00248214
-0.00376999
-0.00573865
-0.00859177
-0.0124702
-0.0174083
-0.0233118
-0.0299636
-0.0370537
-0.0442175
-0.0510751
-0.0572651
-0.0624702
-0.0664361
-0.0689834
-0.0700151
-0.0695193
-0.0675614
-0.0643033
-0.0600339
-0.0551297
-0.0500446
-0.0452771
-0.0413193
-0.0385855
-0.0373344
-0.0376035
-0.0391847
-0.0416616
-0.0445082
-0.0472208
-0.0494312
-0.050959
-0.0518014
-0.052095
-0.0519977
-0.051674
-0.0512864
-0.0509411
-0.0506825
-0.0504836
-0.0503173
0.00258947
0.00232089
0.0018208
0.00118491
0.00053664
-8.77753e-05
-0.000777755
-0.00172696
-0.00319929
-0.00549345
-0.00889297
-0.0136031
-0.0196956
-0.0270828
-0.0355286
-0.0446858
-0.0541441
-0.0634742
-0.0722639
-0.0801453
-0.0868142
-0.0920404
-0.0956683
-0.0976144
-0.0978671
-0.0964684
-0.0935119
-0.0892022
-0.0838077
-0.0776693
-0.0711943
-0.0648387
-0.0590707
-0.0543128
-0.0508702
-0.0488634
-0.0481912
-0.0485496
-0.0495127
-0.0506497
-0.0516287
-0.0522679
-0.0525318
-0.0524926
-0.0522529
-0.0519212
-0.0515977
-0.051345
-0.0511597
-0.0510219
0.00395514
0.00355771
0.00293492
0.00218088
0.00137285
0.000476501
-0.000690926
-0.00242963
-0.00510686
-0.00908881
-0.014656
-0.0219291
-0.0308336
-0.041111
-0.0523655
-0.0641243
-0.0758947
-0.0872092
-0.0976563
-0.1069
-0.114687
-0.120851
-0.125287
-0.127946
-0.128838
-0.12802
-0.125541
-0.121524
-0.116122
-0.109533
-0.102013
-0.0938825
-0.0855341
-0.0774157
-0.0699949
-0.0636955
-0.058817
-0.0554628
-0.0535087
-0.0526383
-0.052442
-0.0525385
-0.0526587
-0.0526742
-0.0525712
-0.0523879
-0.0521841
-0.0520137
-0.0518878
-0.0517961
0.00555312
0.0050341
0.00428429
0.0033688
0.00227585
0.000865986
-0.00116168
-0.00421962
-0.00874811
-0.0151086
-0.0234838
-0.0338229
-0.0458479
-0.059107
-0.0730506
-0.0871054
-0.100736
-0.113487
-0.124999
-0.135017
-0.14338
-0.150004
-0.154858
-0.157935
-0.159269
-0.158957
-0.157029
-0.153548
-0.148577
-0.142192
-0.13449
-0.125611
-0.115767
-0.10527
-0.0945521
-0.0841599
-0.074699
-0.0667333
-0.0606495
-0.0565401
-0.0541704
-0.0530705
-0.0527118
-0.0526691
-0.0526966
-0.0527057
-0.0526881
-0.0526628
-0.0526332
-0.0525979
0.00722149
0.00659314
0.00570465
0.00454533
0.00297589
0.000726794
-0.00262683
-0.00758124
-0.0145781
-0.0238753
-0.0354627
-0.049053
-0.0641388
-0.0800842
-0.0962219
-0.111935
-0.126712
-0.140173
-0.152067
-0.162252
-0.170673
-0.177334
-0.182265
-0.185499
-0.187088
-0.187156
-0.18573
-0.182843
-0.178512
-0.172738
-0.165512
-0.156821
-0.146683
-0.135189
-0.122564
-0.10923
-0.0958345
-0.0832192
-0.0722814
-0.0637448
-0.0579183
-0.0545808
-0.0530946
-0.0526954
-0.0527675
-0.0529631
-0.0531612
-0.0533167
-0.0534063
-0.0534303
0.0086974
0.00797654
0.0069117
0.00537952
0.00308377
-0.000382377
-0.00554519
-0.0129201
-0.0228533
-0.0353998
-0.0502857
-0.066958
-0.0846921
-0.102715
-0.120314
-0.13691
-0.15209
-0.165605
-0.177339
-0.187269
-0.19543
-0.201887
-0.206709
-0.209951
-0.211674
-0.211999
-0.210955
-0.208566
-0.204839
-0.199752
-0.193252
-0.185253
-0.175646
-0.164329
-0.151277
-0.136623
-0.120781
-0.104527
-0.0889841
-0.0754404
-0.0649816
-0.058085
-0.0544248
-0.0530692
-0.0529525
-0.0532882
-0.0536929
-0.0540393
-0.0542553
-0.0543389
0.00963513
0.00882079
0.00751531
0.00544496
0.00214518
-0.00291199
-0.0103019
-0.020471
-0.033572
-0.0493815
-0.0673281
-0.086607
-0.106331
-0.125671
-0.143962
-0.160743
-0.175755
-0.1889
-0.200189
-0.20969
-0.217493
-0.223694
-0.228371
-0.231583
-0.233386
-0.233882
-0.233095
-0.231052
-0.227764
-0.223216
-0.217362
-0.210109
-0.201311
-0.190779
-0.178309
-0.163759
-0.147178
-0.128981
-0.110099
-0.0919974
-0.076404
-0.064754
-0.0575787
-0.05427
-0.0534676
-0.0537939
-0.054383
-0.0549114
-0.0552553
-0.0554014
0.00962546
0.00870497
0.00707459
0.00428795
-0.000277241
-0.00723139
-0.0171264
-0.0302487
-0.0464796
-0.0652786
-0.0857879
-0.107006
-0.127969
-0.147892
-0.166239
-0.182721
-0.197247
-0.209854
-0.220642
-0.22973
-0.23723
-0.243235
-0.247816
-0.251021
-0.252894
-0.253514
-0.252896
-0.251067
-0.248045
-0.243832
-0.238404
-0.231697
-0.223595
-0.213911
-0.202391
-0.188741
-0.172712
-0.154274
-0.133864
-0.112625
-0.0924387
-0.0755191
-0.0635779
-0.0569885
-0.0546218
-0.0545899
-0.0553045
-0.0560085
-0.0564887
-0.0567097
0.00826819
0.00721766
0.00517329
0.0015114
-0.00451811
-0.0135539
-0.0260469
-0.0420481
-0.0611233
-0.0824185
-0.10484
-0.127274
-0.148781
-0.168704
-0.186688
-0.202627
-0.216573
-0.228657
-0.239025
-0.247809
-0.255113
-0.261015
-0.265568
-0.268804
-0.270751
-0.271472
-0.270974
-0.269279
-0.266407
-0.26237
-0.257165
-0.250763
-0.243096
-0.234033
-0.223361
-0.210772
-0.195889
-0.178362
-0.158092
-0.135584
-0.112289
-0.0906137
-0.0732747
-0.0620788
-0.0569034
-0.0558391
-0.0565079
-0.0573934
-0.0580337
-0.0583543
0.00524112
0.00403467
0.00150007
-0.0031479
-0.0107442
-0.0218966
-0.0368881
-0.0554866
-0.0769365
-0.100111
-0.123757
-0.146748
-0.168253
-0.187795
-0.20521
-0.220548
-0.233961
-0.245627
-0.255699
-0.264298
-0.271504
-0.277376
-0.281949
-0.285241
-0.287266
-0.288077
-0.287676
-0.286078
-0.2833
-0.279357
-0.274255
-0.267988
-0.260528
-0.251808
-0.241692
-0.229948
-0.216217
-0.200038
-0.180957
-0.158834
-0.134329
-0.109351
-0.0869677
-0.0703327
-0.0609829
-0.0578414
-0.0580716
-0.0591233
-0.0599561
-0.0604179
0.000364263
-0.00102211
-0.00409335
-0.00977041
-0.0189247
-0.0320801
-0.049305
-0.0700696
-0.0933242
-0.117735
-0.141982
-0.165006
-0.186141
-0.205106
-0.221904
-0.236694
-0.249679
-0.261046
-0.270934
-0.279435
-0.286607
-0.292488
-0.2971
-0.300452
-0.30255
-0.303439
-0.303123
-0.301608
-0.298909
-0.295034
-0.289993
-0.283787
-0.27641
-0.267838
-0.258008
-0.246785
-0.233914
-0.218984
-0.201434
-0.180708
-0.156673
-0.130298
-0.104181
-0.0821645
-0.0675793
-0.0610765
-0.0601569
-0.061262
-0.0623315
-0.062985
-0.00636806
-0.00794615
-0.0115628
-0.0182402
-0.0288397
-0.0437618
-0.0628396
-0.0852599
-0.109732
-0.134792
-0.159133
-0.181825
-0.202387
-0.220717
-0.23694
-0.251277
-0.263945
-0.275111
-0.284887
-0.29334
-0.300504
-0.306403
-0.311052
-0.314456
-0.316616
-0.31757
-0.317328
-0.31589
-0.313265
-0.30946
-0.304481
-0.298327
-0.290999
-0.282493
-0.272788
-0.26183
-0.249481
-0.235462
-0.219285
-0.200269
-0.177759
-0.15174
-0.12375
-0.0973775
-0.0772142
-0.0661381
-0.0630597
-0.0639154
-0.0652642
-0.0661525
-0.0147794
-0.0165495
-0.0206812
-0.0282666
-0.0401174
-0.0564885
-0.0769815
-0.100537
-0.125687
-0.150914
-0.174983
-0.197125
-0.217037
-0.234754
-0.250482
-0.264463
-0.2769
-0.287929
-0.297634
-0.306055
-0.313214
-0.319125
-0.3238
-0.327242
-0.32945
-0.330456
-0.330276
-0.328907
-0.326354
-0.322624
-0.317716
-0.311631
-0.304366
-0.295919
-0.286287
-0.27546
-0.26339
-0.249933
-0.234763
-0.217286
-0.196665
-0.172187
-0.144173
-0.11515
-0.0899779
-0.0735715
-0.0671869
-0.0672285
-0.0688641
-0.0700204
-0.0245417
-0.0264878
-0.031073
-0.0394288
-0.0522875
-0.0697546
-0.0912224
-0.115436
-0.140815
-0.16585
-0.189416
-0.210907
-0.230169
-0.247336
-0.262653
-0.276357
-0.28862
-0.299549
-0.309196
-0.317588
-0.324736
-0.330648
-0.335336
-0.338803
-0.341047
-0.342093
-0.341966
-0.340654
-0.338167
-0.334509
-0.329679
-0.323677
-0.316496
-0.308133
-0.298585
-0.287856
-0.275945
-0.262809
-0.248284
-0.231967
-0.213101
-0.19067
-0.164023
-0.13425
-0.105433
-0.0836748
-0.0729693
-0.0714101
-0.0732282
-0.0746896
-0.0352176
-0.0373127
-0.0422675
-0.0512319
-0.0648384
-0.0830531
-0.105095
-0.129567
-0.154836
-0.17944
-0.202382
-0.223202
-0.24186
-0.258552
-0.273531
-0.287013
-0.299139
-0.309981
-0.319575
-0.327933
-0.335062
-0.340967
-0.345659
-0.349143
-0.351413
-0.35249
-0.352405
-0.351142
-0.34871
-0.345116
-0.34036
-0.334443
-0.327359
-0.319102
-0.309667
-0.299054
-0.287276
-0.274344
-0.260214
-0.244679
-0.227197
-0.206784
-0.182256
-0.153363
-0.122694
-0.0963657
-0.0807603
-0.0767075
-0.0784411
-0.0802613
-0.0463189
-0.0485232
-0.0537539
-0.063161
-0.0772653
-0.0959143
-0.118194
-0.142619
-0.167545
-0.191586
-0.213867
-0.234046
-0.252167
-0.268454
-0.283155
-0.296453
-0.30846
-0.319223
-0.328763
-0.337083
-0.344187
-0.350081
-0.354773
-0.358268
-0.36056
-0.36166
-0.361608
-0.360383
-0.357997
-0.354456
-0.349765
-0.343926
-0.336938
-0.328796
-0.319491
-0.309022
-0.297397
-0.284642
-0.270779
-0.255752
-0.239259
-0.22054
-0.198305
-0.171379
-0.14065
-0.111157
-0.0907023
-0.083352
-0.0845745
-0.0868191
-0.057355
-0.0596213
-0.0650322
-0.0747264
-0.0891071
-0.10793
-0.130189
-0.154354
-0.178801
-0.202227
-0.223864
-0.243464
-0.261121
-0.277068
-0.291534
-0.304675
-0.316575
-0.327263
-0.336748
-0.34503
-0.352109
-0.35799
-0.36268
-0.366184
-0.368493
-0.36961
-0.369585
-0.368391
-0.366041
-0.362542
-0.357903
-0.352131
-0.345229
-0.337195
-0.328026
-0.317716
-0.306267
-0.293704
-0.280069
-0.265397
-0.249583
-0.232153
-0.212003
-0.187543
-0.158197
-0.127246
-0.102648
-0.0914844
-0.0917017
-0.0943983
-0.0678769
-0.0701534
-0.0756509
-0.0854957
-0.0999693
-0.118763
-0.140819
-0.164592
-0.188502
-0.211322
-0.232371
-0.251467
-0.268731
-0.284394
-0.298662
-0.311667
-0.323469
-0.334087
-0.343521
-0.351767
-0.358824
-0.364694
-0.369383
-0.372894
-0.375218
-0.376348
-0.376344
-0.375173
-0.372849
-0.369382
-0.364783
-0.359063
-0.352231
-0.344292
-0.335247
-0.325094
-0.313834
-0.301481
-0.28808
-0.273701
-0.258371
-0.241877
-0.223433
-0.201466
-0.174431
-0.143671
-0.116138
-0.101098
-0.0998528
-0.10294
-0.0775255
-0.0797205
-0.0852357
-0.0951127
-0.109534
-0.128152
-0.149886
-0.173205
-0.196575
-0.218838
-0.239378
-0.258051
-0.274991
-0.29042
-0.304522
-0.317409
-0.329126
-0.339681
-0.34907
-0.357286
-0.364327
-0.370191
-0.37488
-0.378398
-0.380734
-0.381876
-0.381887
-0.380732
-0.378425
-0.374979
-0.370407
-0.364723
-0.357943
-0.35008
-0.34114
-0.331129
-0.32005
-0.307913
-0.294757
-0.280659
-0.265714
-0.249902
-0.232772
-0.213032
-0.188719
-0.15948
-0.130475
-0.111972
-0.108934
-0.112245
-0.0860277
-0.0880106
-0.0934801
-0.103305
-0.117563
-0.135904
-0.15725
-0.180101
-0.20297
-0.224751
-0.244869
-0.263202
-0.279884
-0.295125
-0.309092
-0.321881
-0.333526
-0.34403
-0.353384
-0.36158
-0.368612
-0.374476
-0.379169
-0.382694
-0.385042
-0.386196
-0.386215
-0.385071
-0.382773
-0.379336
-0.374776
-0.369112
-0.362365
-0.354553
-0.345694
-0.335799
-0.324878
-0.312945
-0.300033
-0.286214
-0.271612
-0.256325
-0.240183
-0.222285
-0.200695
-0.173858
-0.144823
-0.123658
-0.118665
-0.121966
-0.0931698
-0.0948405
-0.100164
-0.109877
-0.123897
-0.141889
-0.162815
-0.185217
-0.207648
-0.229036
-0.248826
-0.2669
-0.283387
-0.298484
-0.312346
-0.325059
-0.33665
-0.347119
-0.356452
-0.36464
-0.371673
-0.377544
-0.382248
-0.385783
-0.388142
-0.389309
-0.389333
-0.388195
-0.385897
-0.382457
-0.377895
-0.372232
-0.365494
-0.357708
-0.348898
-0.339085
-0.32829
-0.31653
-0.303841
-0.290291
-0.276008
-0.261155
-0.245764
-0.229318
-0.210193
-0.186186
-0.158339
-0.135528
-0.128599
-0.131659
-0.0988175
-0.100113
-0.105173
-0.114708
-0.128442
-0.146049
-0.166551
-0.188537
-0.210598
-0.231681
-0.251233
-0.269126
-0.285478
-0.300472
-0.31426
-0.32692
-0.338479
-0.34893
-0.35826
-0.366454
-0.3735
-0.379389
-0.384112
-0.387663
-0.390036
-0.391214
-0.39124
-0.390105
-0.387799
-0.384346
-0.379766
-0.374085
-0.367333
-0.359541
-0.350745
-0.340976
-0.330261
-0.318631
-0.306124
-0.292811
-0.27882
-0.264343
-0.24954
-0.234212
-0.217169
-0.196055
-0.170266
-0.146866
-0.138206
-0.140843
-0.102924
-0.103804
-0.108488
-0.117767
-0.13117
-0.148361
-0.16843
-0.190027
-0.211782
-0.232647
-0.252053
-0.26985
-0.286134
-0.301079
-0.31483
-0.327467
-0.339015
-0.34947
-0.358814
-0.367031
-0.374105
-0.380022
-0.38477
-0.38834
-0.390721
-0.391904
-0.391926
-0.390793
-0.388471
-0.384993
-0.380382
-0.374663
-0.367871
-0.360045
-0.351227
-0.341458
-0.330775
-0.319218
-0.306836
-0.293707
-0.279962
-0.265806
-0.251476
-0.237002
-0.221638
-0.203222
-0.180004
-0.156972
-0.146946
-0.149049
-0.105524
-0.105971
-0.110175
-0.119106
-0.132132
-0.148871
-0.168487
-0.189704
-0.211192
-0.231902
-0.251237
-0.269011
-0.28529
-0.300236
-0.313991
-0.326638
-0.338207
-0.348695
-0.358082
-0.366348
-0.373475
-0.379443
-0.384239
-0.387848
-0.390261
-0.391463
-0.391471
-0.390314
-0.387953
-0.384422
-0.379747
-0.373959
-0.367097
-0.359204
-0.350327
-0.340512
-0.329807
-0.318262
-0.305938
-0.292923
-0.279357
-0.265455
-0.251501
-0.237679
-0.22362
-0.207564
-0.187111
-0.165221
-0.154316
-0.155848
-0.106718
-0.10674
-0.110375
-0.118843
-0.131422
-0.147662
-0.166791
-0.187616
-0.208853
-0.229452
-0.248775
-0.266588
-0.282923
-0.297921
-0.311721
-0.324414
-0.336035
-0.346583
-0.356039
-0.36438
-0.371581
-0.377621
-0.38248
-0.386142
-0.388595
-0.389826
-0.389837
-0.388665
-0.386265
-0.382674
-0.377922
-0.372038
-0.365065
-0.357052
-0.348053
-0.338127
-0.327334
-0.315732
-0.303391
-0.290407
-0.276936
-0.263206
-0.24953
-0.236197
-0.223127
-0.209032
-0.191296
-0.1711
-0.159865
-0.160853
-0.106665
-0.106299
-0.109293
-0.117157
-0.12919
-0.144857
-0.163437
-0.183827
-0.204798
-0.2253
-0.244651
-0.262558
-0.279005
-0.294109
-0.308003
-0.320783
-0.332493
-0.343135
-0.352691
-0.361136
-0.36844
-0.374577
-0.379522
-0.383255
-0.38576
-0.387025
-0.387043
-0.385855
-0.38341
-0.379746
-0.374897
-0.368894
-0.361782
-0.353613
-0.344448
-0.334349
-0.323385
-0.311627
-0.299164
-0.286113
-0.272638
-0.258981
-0.245481
-0.232493
-0.220147
-0.207612
-0.192382
-0.174209
-0.163196
-0.163718
-0.105568
-0.104875
-0.107185
-0.11429
-0.125634
-0.140619
-0.158551
-0.178419
-0.199066
-0.219448
-0.238838
-0.256877
-0.27349
-0.288756
-0.302799
-0.315716
-0.327558
-0.338336
-0.348031
-0.356616
-0.364057
-0.370321
-0.37538
-0.379207
-0.381783
-0.383093
-0.383125
-0.381919
-0.379425
-0.375677
-0.370711
-0.364561
-0.357273
-0.348904
-0.339516
-0.32918
-0.317971
-0.305971
-0.293282
-0.280035
-0.266423
-0.252719
-0.239279
-0.2265
-0.214659
-0.203307
-0.190274
-0.174253
-0.163958
-0.164122
-0.103656
-0.102718
-0.104335
-0.110526
-0.121002
-0.135152
-0.152296
-0.171509
-0.191719
-0.211908
-0.231311
-0.249496
-0.266317
-0.281804
-0.296058
-0.309172
-0.321202
-0.332164
-0.342045
-0.350813
-0.35843
-0.364859
-0.370064
-0.374014
-0.376684
-0.378056
-0.378115
-0.376892
-0.374349
-0.370507
-0.365406
-0.359083
-0.351583
-0.342964
-0.333295
-0.32265
-0.311109
-0.298768
-0.28574
-0.272178
-0.258297
-0.244398
-0.230877
-0.218164
-0.206632
-0.196125
-0.184936
-0.171023
-0.161826
-0.161755
-0.101167
-0.100076
-0.101033
-0.106182
-0.115583
-0.128701
-0.144868
-0.163242
-0.182845
-0.202712
-0.222054
-0.240366
-0.257421
-0.273184
-0.287717
-0.301098
-0.313384
-0.324594
-0.334717
-0.343721
-0.351564
-0.358202
-0.363593
-0.3677
-0.370493
-0.37195
-0.372052
-0.37082
-0.36823
-0.364288
-0.359036
-0.352513
-0.344764
-0.335849
-0.325836
-0.314804
-0.302841
-0.290049
-0.27656
-0.262547
-0.248254
-0.234016
-0.220267
-0.20747
-0.19606
-0.186087
-0.176367
-0.164388
-0.156502
-0.156313
-0.0983318
-0.0971793
-0.0975497
-0.101577
-0.109696
-0.121543
-0.136496
-0.153792
-0.172562
-0.191914
-0.211061
-0.229438
-0.246727
-0.262812
-0.277696
-0.291429
-0.304055
-0.315593
-0.326031
-0.335337
-0.343466
-0.350367
-0.355992
-0.360299
-0.363251
-0.364821
-0.364987
-0.363759
-0.361127
-0.357083
-0.351666
-0.344918
-0.336885
-0.327623
-0.317202
-0.305704
-0.293221
-0.279867
-0.265788
-0.251181
-0.236324
-0.221589
-0.207457
-0.194431
-0.182986
-0.173243
-0.16461
-0.154284
-0.147703
-0.147486
-0.0953521
-0.0942161
-0.0941079
-0.0970077
-0.10367
-0.113983
-0.127436
-0.143362
-0.161011
-0.17959
-0.198345
-0.216668
-0.234153
-0.250588
-0.265897
-0.280078
-0.293148
-0.305114
-0.315961
-0.325654
-0.334142
-0.341373
-0.347292
-0.35185
-0.355004
-0.356722
-0.35698
-0.355776
-0.353111
-0.348964
-0.343372
-0.336379
-0.328025
-0.318367
-0.307474
-0.295428
-0.282326
-0.268293
-0.253493
-0.238149
-0.222573
-0.207184
-0.192509
-0.179098
-0.16748
-0.157697
-0.149755
-0.140728
-0.135207
-0.13497
-0.0923892
-0.0913291
-0.0908735
-0.0927193
-0.0978181
-0.106341
-0.117971
-0.13218
-0.148361
-0.165844
-0.183941
-0.202029
-0.219625
-0.236408
-0.252205
-0.266937
-0.280573
-0.293092
-0.304465
-0.314651
-0.323595
-0.331239
-0.337524
-0.342395
-0.345805
-0.347715
-0.348099
-0.346943
-0.34426
-0.340016
-0.334243
-0.326984
-0.318277
-0.308176
-0.296746
-0.284071
-0.270254
-0.255429
-0.239779
-0.223557
-0.207114
-0.190917
-0.175543
-0.161591
-0.149631
-0.139631
-0.131971
-0.123826
-0.118865
-0.118486
-0.0895606
-0.0886135
-0.087948
-0.088886
-0.0924069
-0.0989273
-0.108393
-0.120493
-0.134803
-0.150809
-0.167919
-0.185527
-0.20309
-0.220181
-0.236509
-0.251892
-0.266226
-0.279442
-0.291485
-0.302296
-0.311816
-0.319978
-0.326719
-0.33198
-0.33571
-0.337866
-0.338417
-0.337344
-0.33466
-0.330329
-0.324374
-0.316834
-0.307746
-0.297157
-0.285133
-0.271755
-0.257132
-0.24141
-0.224791
-0.207563
-0.190119
-0.172973
-0.156756
-0.142107
-0.129616
-0.119254
-0.111461
-0.103728
-0.0986375
-0.0977554
-0.0869385
-0.0861263
-0.0853776
-0.0856003
-0.0876251
-0.0920076
-0.0989862
-0.108557
-0.12055
-0.134647
-0.150389
-0.167216
-0.184546
-0.201854
-0.218719
-0.234838
-0.250003
-0.264075
-0.276951
-0.288546
-0.298784
-0.307591
-0.314899
-0.320644
-0.324773
-0.327239
-0.32801
-0.327061
-0.324401
-0.32
-0.313868
-0.306039
-0.296548
-0.285438
-0.272771
-0.258628
-0.243125
-0.226419
-0.208736
-0.190397
-0.171837
-0.153623
-0.136431
-0.120935
-0.107736
-0.096802
-0.0884868
-0.0805948
-0.0745306
-0.0724094
-0.0845572
-0.0838922
-0.0831646
-0.0828751
-0.083559
-0.0857608
-0.0899859
-0.0966135
-0.105822
-0.117554
-0.131514
-0.147217
-0.164067
-0.181449
-0.198816
-0.215722
-0.231836
-0.24692
-0.260803
-0.273357
-0.284478
-0.294078
-0.302083
-0.308424
-0.313045
-0.315899
-0.316952
-0.316179
-0.313578
-0.309133
-0.302838
-0.294722
-0.28482
-0.27317
-0.25983
-0.244885
-0.228453
-0.210709
-0.191899
-0.172378
-0.152623
-0.133246
-0.114962
-0.0984673
-0.0843645
-0.0725777
-0.0633939
-0.0546126
-0.0467252
-0.0420323
-0.0824117
-0.0819097
-0.0812827
-0.0806559
-0.0801772
-0.0802355
-0.081528
-0.0848547
-0.0908351
-0.0997488
-0.111513
-0.12574
-0.141835
-0.159113
-0.176897
-0.194598
-0.211744
-0.227975
-0.243031
-0.256719
-0.268896
-0.279452
-0.288298
-0.295361
-0.300583
-0.303917
-0.305327
-0.30479
-0.302297
-0.297845
-0.291415
-0.283032
-0.272729
-0.260544
-0.246532
-0.230781
-0.213416
-0.194623
-0.174673
-0.153947
-0.132958
-0.112348
-0.0928569
-0.0751863
-0.059927
-0.0469374
-0.0365407
-0.0260328
-0.0158386
-0.00654746
-0.0804554
-0.0801443
-0.0796776
-0.0788284
-0.0773271
-0.0753177
-0.0736001
-0.0733799
-0.0757766
-0.0814835
-0.0906809
-0.103106
-0.11818
-0.135155
-0.153239
-0.171698
-0.18991
-0.207381
-0.223742
-0.238719
-0.252116
-0.263785
-0.27362
-0.281538
-0.287478
-0.291392
-0.293247
-0.293018
-0.290697
-0.286289
-0.279771
-0.271163
-0.260499
-0.247818
-0.233176
-0.216664
-0.198415
-0.178626
-0.157585
-0.135691
-0.113472
-0.0915803
-0.0707476
-0.0516559
-0.0348639
-0.0201769
-0.00802917
0.00516273
0.0173085
0.0339066
-0.0785877
-0.0785117
-0.0782482
-0.0772084
-0.074733
-0.0707198
-0.0660111
-0.0621607
-0.0607863
-0.0630373
-0.0694038
-0.0797763
-0.0936092
-0.1101
-0.128352
-0.147491
-0.16675
-0.185497
-0.203242
-0.219618
-0.234361
-0.247277
-0.258233
-0.267131
-0.273902
-0.2785
-0.28089
-0.281055
-0.278982
-0.274682
-0.268147
-0.259387
-0.248438
-0.235343
-0.220165
-0.202997
-0.18398
-0.16332
-0.141308
-0.118344
-0.0949444
-0.0717302
-0.0493824
-0.0285145
-0.00960864
0.00760169
0.022609
0.0399918
0.0537843
0.0815329
-0.076656
-0.0768614
-0.0768147
-0.0755162
-0.0719986
-0.0660047
-0.0584124
-0.0510469
-0.0459565
-0.0447285
-0.0481808
-0.0563836
-0.0688422
-0.0847153
-0.10301
-0.12273
-0.14297
-0.162964
-0.182104
-0.199923
-0.216079
-0.230327
-0.242496
-0.252469
-0.260167
-0.26554
-0.268556
-0.269199
-0.267463
-0.263357
-0.256894
-0.248083
-0.236963
-0.223586
-0.20802
-0.190366
-0.170767
-0.149429
-0.126634
-0.102751
-0.0782463
-0.0536606
-0.0295651
-0.0064386
0.0153923
0.0363883
0.0562103
0.0805014
0.0989203
0.143835
-0.0745136
-0.0750128
-0.0751544
-0.0734344
-0.0686828
-0.060676
-0.0503969
-0.0398474
-0.0313825
-0.0269429
-0.0276458
-0.0337494
-0.044829
-0.0600247
-0.0782695
-0.0984617
-0.119577
-0.14073
-0.1612
-0.180425
-0.197986
-0.213579
-0.226993
-0.238087
-0.246767
-0.252979
-0.256691
-0.257892
-0.256582
-0.252771
-0.246483
-0.237744
-0.226599
-0.213111
-0.197357
-0.179439
-0.159498
-0.137725
-0.114369
-0.089738
-0.0641999
-0.0381537
-0.0119874
0.0140394
0.0398518
0.0662447
0.0933095
0.128222
0.159129
0.22626
-0.072334
-0.0730007
-0.073154
-0.070754
-0.0645659
-0.054466
-0.0417261
-0.0285093
-0.0172798
-0.0101885
-0.00857875
-0.0128717
-0.0227221
-0.0372754
-0.0554205
-0.0759797
-0.0978355
-0.120004
-0.141669
-0.162182
-0.181053
-0.197923
-0.212539
-0.224732
-0.234394
-0.241463
-0.245908
-0.247721
-0.24691
-0.243495
-0.237505
-0.228974
-0.217956
-0.204532
-0.188791
-0.170837
-0.150795
-0.128824
-0.105114
-0.0798789
-0.053339
-0.0256798
0.00300111
0.032819
0.064135
0.0982311
0.135587
0.185114
0.233555
0.314847
-0.071374
-0.0718218
-0.0714816
-0.0678466
-0.059863
-0.0476559
-0.0327018
-0.0173969
-0.00419653
0.00479339
0.00806977
0.00510094
-0.0038235
-0.0178685
-0.0359124
-0.0567382
-0.0791697
-0.102153
-0.1248
-0.146396
-0.166389
-0.184372
-0.200056
-0.213246
-0.223816
-0.231698
-0.236858
-0.239291
-0.239014
-0.236055
-0.230459
-0.222274
-0.211538
-0.198324
-0.18274
-0.164898
-0.144911
-0.122893
-0.0989571
-0.0731966
-0.0456404
-0.0161807
0.0155326
0.0502871
0.0893898
0.135336
0.189465
0.260766
0.322533
0.399822
-0.0759071
-0.0748503
-0.0726468
-0.0666281
-0.0560846
-0.0414613
-0.0244525
-0.00752626
0.00689666
0.0169594
0.0212379
0.0190511
0.0106745
-0.0030694
-0.0210673
-0.0420937
-0.0649441
-0.0885258
-0.111904
-0.134316
-0.15517
-0.174019
-0.190547
-0.204535
-0.215847
-0.224403
-0.230171
-0.233145
-0.233346
-0.23081
-0.225585
-0.217732
-0.207321
-0.194418
-0.179075
-0.161393
-0.14149
-0.119449
-0.0953111
-0.0690365
-0.0404379
-0.00904339
0.0261098
0.0668672
0.116324
0.179967
0.263008
0.375882
0.470554
0.580582
-0.0990559
-0.0906314
-0.0815202
-0.0704202
-0.0562305
-0.0387424
-0.0196661
-0.00134941
0.0141268
0.0248473
0.0295116
0.02766
0.0195796
0.00606414
-0.0118061
-0.0328296
-0.0558112
-0.079651
-0.103395
-0.126258
-0.147616
-0.166999
-0.184068
-0.198586
-0.210403
-0.219434
-0.225637
-0.22901
-0.229571
-0.227359
-0.222426
-0.214833
-0.20465
-0.191947
-0.176803
-0.1593
-0.1395
-0.117449
-0.0931275
-0.0663783
-0.036799
-0.00353712
0.0350466
0.0820333
0.142788
0.227176
0.348402
0.53052
0.746132
1.08985
-0.185274
-0.106911
-0.0747617
-0.0653116
-0.0523164
-0.0339548
-0.0140112
0.00477206
0.0202468
0.0306153
0.0347933
0.0324853
0.0240481
0.010295
-0.00770662
-0.0287889
-0.0517942
-0.0756533
-0.0994333
-0.122358
-0.143807
-0.16331
-0.180519
-0.195195
-0.207181
-0.216384
-0.222763
-0.226309
-0.227041
-0.224996
-0.220224
-0.212787
-0.202753
-0.190194
-0.175185
-0.157792
-0.138067
-0.116023
-0.0915903
-0.064516
-0.0342294
0.000412933
0.041548
0.0931127
0.161944
0.260789
0.410033
0.657729
1.06096
1.81408
)
;

boundaryField
{
    movingWall
    {
        type            zeroGradient;
    }
    fixedWalls
    {
        type            zeroGradient;
    }
    frontAndBack
    {
        type            empty;
    }
}


// ************************************************************************* //
