/*--------------------------------*- C++ -*----------------------------------*\
  =========                 |
  \\      /  F ield         | OpenFOAM: The Open Source CFD Toolbox
   \\    /   O peration     | Website:  https://openfoam.org
    \\  /    A nd           | Version:  7
     \\/     M anipulation  |
\*---------------------------------------------------------------------------*/
FoamFile
{
    version     2.0;
    format      ascii;
    class       surfaceScalarField;
    location    "100";
    object      phi;
}
// * * * * * * * * * * * * * * * * * * * * * * * * * * * * * * * * * * * * * //

dimensions      [0 3 -1 0 0 0 0];

internalField   nonuniform List<scalar> 
4900
(
1.5889e-06
-1.86723e-06
6.1695e-06
-4.57621e-06
1.1607e-05
-5.48069e-06
1.62935e-05
-4.738e-06
1.94485e-05
-3.20091e-06
2.10149e-05
-1.60425e-06
2.13305e-05
-3.4803e-07
2.07523e-05
5.49442e-07
1.94042e-05
1.32093e-06
1.71097e-05
2.26823e-06
1.34742e-05
3.60988e-06
8.01223e-06
5.4378e-06
2.31019e-07
7.75872e-06
-1.03268e-05
1.0537e-05
-2.40184e-05
1.36726e-05
-4.10177e-05
1.69819e-05
-6.12525e-05
2.02189e-05
-8.4322e-05
2.30548e-05
-0.000109434
2.50986e-05
-0.000135387
2.594e-05
-0.000160607
2.52086e-05
-0.000183252
2.26339e-05
-0.000201358
1.80959e-05
-0.000213028
1.16606e-05
-0.000216647
3.60892e-06
-0.000211125
-5.53052e-06
-0.000196028
-1.5105e-05
-0.000171682
-2.43535e-05
-0.000139173
-3.25163e-05
-0.000100329
-3.88513e-05
-5.76331e-05
-4.27025e-05
-1.40763e-05
-4.35635e-05
2.70796e-05
-4.11626e-05
6.28007e-05
-3.57279e-05
9.07203e-05
-2.79263e-05
0.00010928
-1.85661e-05
0.00011801
-8.73555e-06
0.000117633
3.71494e-07
0.00010992
7.70771e-06
9.71693e-05
1.27461e-05
8.17536e-05
1.54109e-05
6.57209e-05
1.6028e-05
5.05651e-05
1.51511e-05
3.71658e-05
1.33947e-05
2.58675e-05
1.12936e-05
1.66431e-05
9.21968e-06
9.31345e-06
7.32499e-06
3.83331e-06
5.47525e-06
5.87089e-07
3.24157e-06
5.8612e-07
4.42927e-06
-6.26769e-06
1.3682e-05
-1.38936e-05
2.39103e-05
-1.58224e-05
3.22261e-05
-1.31727e-05
3.70607e-05
-8.1413e-06
3.80382e-05
-2.67317e-06
3.54228e-05
2.1871e-06
2.94827e-05
6.41547e-06
2.00754e-05
1.06578e-05
6.55108e-06
1.57248e-05
-1.20994e-05
2.21966e-05
-3.69744e-05
3.02548e-05
-6.89649e-05
3.96972e-05
-0.000108506
5.00318e-05
-0.000155369
6.04948e-05
-0.000208506
7.00841e-05
-0.000265997
7.76779e-05
-0.000325168
8.21977e-05
-0.000382867
8.27721e-05
-0.000435799
7.88493e-05
-0.000480853
7.02416e-05
-0.000515352
5.71133e-05
-0.000537212
3.99378e-05
-0.000545022
1.94539e-05
-0.000538119
-3.3108e-06
-0.000516517
-2.71486e-05
-0.000480749
-5.0887e-05
-0.000431857
-7.32604e-05
-0.000371482
-9.29049e-05
-0.000301904
-0.000108442
-0.00022604
-0.000118581
-0.000147356
-0.000122261
-6.96698e-05
-0.000118863
2.97381e-06
-0.000108387
6.66582e-05
-9.16256e-05
0.000118401
-7.03227e-05
0.000156106
-4.64543e-05
0.000178736
-2.22716e-05
0.000186503
-7.19764e-08
0.000181141
1.80965e-05
0.000165561
3.09801e-05
0.00014327
3.83088e-05
0.000117712
4.06978e-05
9.17823e-05
3.93132e-05
6.75217e-05
3.55428e-05
4.60899e-05
3.06397e-05
2.80176e-05
2.53853e-05
1.36893e-05
1.97917e-05
3.89025e-06
1.30296e-05
4.47516e-06
5.89915e-06
-1.21737e-05
1.6982e-05
-2.50164e-05
2.80378e-05
-2.69602e-05
3.56037e-05
-2.08341e-05
3.78715e-05
-1.05027e-05
3.42567e-05
8.54874e-07
2.46635e-05
1.17009e-05
8.8366e-06
2.21689e-05
-1.40262e-05
3.34534e-05
-4.52064e-05
4.68453e-05
-8.60312e-05
6.29694e-05
-0.000137377
8.15553e-05
-0.000199255
0.000101537
-0.000270512
0.000121255
-0.000348772
0.000138726
-0.000430679
0.000151966
-0.000512348
0.000159324
-0.000589875
0.000159705
-0.000659775
0.000152655
-0.00071925
0.000138307
-0.000766277
0.000117253
-0.00079956
9.03809e-05
-0.000818387
5.87512e-05
-0.000822457
2.35099e-05
-0.000811687
-1.40939e-05
-0.000786056
-5.27912e-05
-0.000745785
-9.11697e-05
-0.000691465
-0.000127591
-0.000624146
-0.000160234
-0.000545451
-0.000187147
-0.000457668
-0.000206373
-0.000363777
-0.000216162
-0.000267392
-0.000215258
-0.00017257
-0.000203219
-8.35078e-05
-0.0001807
-4.34232e-06
-0.000149501
6.16264e-05
-0.000112436
0.000112406
-7.30638e-05
0.000146951
-3.4629e-05
0.000165186
-1.50101e-07
0.000168333
2.78219e-05
0.000158948
4.7683e-05
0.000140444
5.91923e-05
0.000116462
6.32842e-05
9.03251e-05
6.16695e-05
6.46335e-05
5.63208e-05
4.11991e-05
4.8809e-05
2.13649e-05
3.96135e-05
6.68394e-06
2.77013e-05
1.11579e-05
6.34446e-06
-1.85088e-05
1.69671e-05
-3.56775e-05
2.57146e-05
-3.5775e-05
2.88909e-05
-2.40919e-05
2.47405e-05
-6.43812e-06
1.25528e-05
1.2961e-05
-8.25648e-06
3.24366e-05
-3.87364e-05
5.25847e-05
-8.03889e-05
7.50513e-05
-0.000134615
0.000101025
-0.000202035
0.00013035
-0.00028195
0.000161437
-0.000372137
0.000191695
-0.000469055
0.000218149
-0.000568394
0.000238043
-0.000665756
0.000249311
-0.000757259
0.00025081
-0.000839882
0.000242313
-0.000911557
0.000224316
-0.000971038
0.000197775
-0.00101766
0.00016386
-0.00105108
0.000123788
-0.00107108
7.87415e-05
-0.00107744
2.98573e-05
-0.00106981
-2.17293e-05
-0.00104786
-7.47546e-05
-0.00101135
-0.000127683
-0.000960245
-0.000178708
-0.000894764
-0.000225723
-0.000815602
-0.000266316
-0.000724104
-0.000297879
-0.000622444
-0.000317828
-0.000513742
-0.000323967
-0.000402021
-0.000314948
-0.000291986
-0.000290743
-0.000188542
-0.000252952
-9.61756e-05
-0.000204812
-1.84851e-05
-0.000150765
4.2559e-05
-9.56848e-05
8.64994e-05
-4.41026e-05
0.0001136
7.09198e-07
0.000124943
3.63288e-05
0.000122826
6.12991e-05
0.000110412
7.56885e-05
9.12175e-05
8.08538e-05
6.8622e-05
7.8906e-05
4.55289e-05
7.18915e-05
2.44097e-05
6.07229e-05
7.87256e-06
4.42281e-05
1.90293e-05
5.90057e-06
-2.4423e-05
1.39081e-05
-4.37246e-05
1.74186e-05
-3.93437e-05
1.29212e-05
-1.96665e-05
-1.09548e-06
7.50281e-06
-2.55568e-05
3.73533e-05
-6.1667e-05
6.84878e-05
-0.000111107
0.000101975
-0.000175374
0.000139276
-0.000254847
0.000180464
-0.000348168
0.000223642
-0.000452193
0.000265437
-0.000562489
0.000301971
-0.000674145
0.000329787
-0.000782584
0.000346466
-0.000884143
0.000350855
-0.000976289
0.000342943
-0.00105753
0.000323539
-0.00112713
0.000293905
-0.00118482
0.000255456
-0.00123054
0.000209572
-0.00126429
0.000157524
-0.00128602
0.000100466
-0.00129564
3.94683e-05
-0.00129291
-2.44693e-05
-0.00127745
-9.02188e-05
-0.00124878
-0.000156368
-0.00120624
-0.000221246
-0.00114921
-0.000282764
-0.00107719
-0.000338342
-0.000990154
-0.000384921
-0.000888852
-0.000419136
-0.000775164
-0.000437661
-0.000652354
-0.000437763
-0.000525117
-0.000417986
-0.000399264
-0.000378811
-0.000281013
-0.000323069
-0.000175958
-0.000255827
-8.80633e-05
-0.000183588
-1.92156e-05
-0.000112961
3.07969e-05
-4.93149e-05
6.32319e-05
3.88211e-06
7.96499e-05
4.487e-05
8.24365e-05
7.28914e-05
7.46954e-05
8.85846e-05
5.98812e-05
9.37105e-05
4.14623e-05
9.0301e-05
2.27909e-05
7.93827e-05
7.41004e-06
5.96011e-05
2.64382e-05
4.42422e-06
-2.88552e-05
7.50236e-06
-4.68474e-05
2.97228e-06
-3.48696e-05
-1.20592e-05
-4.69875e-06
-3.89309e-05
3.43137e-05
-7.88184e-05
7.7188e-05
-0.00013339
0.000123014
-0.000204222
0.00017277
-0.000291632
0.000226656
-0.000393875
0.000282681
-0.000507163
0.000336909
-0.000626405
0.00038466
-0.000746226
0.000421777
-0.000861886
0.000445432
-0.00096981
0.000454378
-0.00106771
0.00044874
-0.00115437
0.000429593
-0.00122934
0.000398508
-0.00129266
0.000357217
-0.00134462
0.000307402
-0.00138565
0.000250591
-0.00141625
0.000188116
-0.00143689
0.000121105
-0.00144795
5.05172e-05
-0.00144956
-2.28652e-05
-0.00144152
-9.82653e-05
-0.00142325
-0.000174642
-0.00139373
-0.000250773
-0.00135154
-0.000324957
-0.00129504
-0.000394851
-0.0012226
-0.000457369
-0.00113303
-0.000508706
-0.00102613
-0.000544566
-0.000903232
-0.000560664
-0.000767715
-0.000553507
-0.00062516
-0.00052137
-0.000482985
-0.000465249
-0.000349397
-0.000389421
-0.000231786
-0.000301204
-0.000135089
-0.000209665
-6.09189e-05
-0.000123494
-8.0658e-06
-4.89817e-05
2.60293e-05
1.07636e-05
4.39598e-05
5.495e-05
4.86246e-05
8.39095e-05
4.33757e-05
9.89494e-05
3.18817e-05
0.000101785
1.8003e-05
9.3253e-05
5.83426e-06
7.17602e-05
3.22714e-05
1.62171e-06
-3.0498e-05
-2.6244e-06
-4.26477e-05
-1.76912e-05
-1.98543e-05
-4.56129e-05
2.31715e-05
-8.7558e-05
7.62132e-05
-0.00014491
0.000134501
-0.000219187
0.000197258
-0.000310788
0.000264344
-0.000417917
0.000333762
-0.00053648
0.000401224
-0.000660925
0.000461337
-0.000785449
0.00050917
-0.000905016
0.000541331
-0.00101591
0.00055631
-0.00111579
0.00055425
-0.0012035
0.000536441
-0.00127872
0.000504807
-0.00134173
0.00046151
-0.00139322
0.000408701
-0.00143418
0.000348355
-0.00146577
0.000282172
-0.00148918
0.000211521
-0.00150551
0.000137426
-0.00151561
6.06126e-05
-0.00152002
-1.84554e-05
-0.00151882
-9.94764e-05
-0.00151154
-0.000181922
-0.0014971
-0.000265218
-0.00147373
-0.00034833
-0.00143903
-0.000429559
-0.00139009
-0.000506312
-0.00132385
-0.000574948
-0.00123764
-0.000630778
-0.00112996
-0.000668349
-0.00100137
-0.000682104
-0.000855282
-0.000667456
-0.000698373
-0.000622162
-0.000540124
-0.000547674
-0.000391384
-0.000449949
-0.000261984
-0.00033907
-0.000158196
-0.000227289
-8.13731e-05
-0.000125812
-2.8802e-05
-4.18173e-05
3.76509e-06
2.23723e-05
2.02755e-05
6.73885e-05
2.45107e-05
9.47044e-05
2.04072e-05
0.00010588
1.21114e-05
0.000101537
3.92016e-06
7.99446e-05
3.61904e-05
-2.70761e-06
-2.78046e-05
-1.65224e-05
-2.8881e-05
-4.40461e-05
7.62383e-06
-8.63988e-05
6.54845e-05
-0.00014453
0.000134311
-0.000219678
0.00020962
-0.000312336
0.000289892
-0.000420935
0.000372923
-0.000541423
0.000454232
-0.000668012
0.000527799
-0.000794497
0.00058781
-0.000915414
0.000630076
-0.00102668
0.000652587
-0.00112571
0.000655328
-0.0012112
0.000639736
-0.00128288
0.000608115
-0.00134124
0.000563163
-0.00138738
0.000507639
-0.00142281
0.000444125
-0.0014493
0.000374845
-0.00146869
0.000301555
-0.00148268
0.000225512
-0.00149276
0.000147499
-0.00150006
6.79099e-05
-0.00150537
-1.31544e-05
-0.00150901
-9.58409e-05
-0.00151081
-0.000180123
-0.00150997
-0.00026606
-0.00150493
-0.00035337
-0.00149327
-0.000441228
-0.00147161
-0.000527973
-0.00143577
-0.000610793
-0.00138109
-0.000685461
-0.00130317
-0.000746271
-0.00119894
-0.000786339
-0.00106794
-0.000798452
-0.000913588
-0.000776519
-0.000743789
-0.000717476
-0.000570527
-0.000623215
-0.000407862
-0.000501739
-0.000268536
-0.000366619
-0.00016027
-0.000234083
-8.38389e-05
-0.000118256
-3.45142e-05
-2.69616e-05
-5.9702e-06
3.88347e-05
7.26841e-06
8.14559e-05
1.00493e-05
0.000103089
6.95169e-06
0.000104628
2.35356e-06
8.45334e-05
3.8543e-05
-8.56712e-06
-1.92598e-05
-3.3644e-05
-3.84602e-06
-7.47685e-05
4.87121e-05
-0.000131993
0.00012268
-0.000206005
0.000208298
-0.00029727
0.000300864
-0.000404596
0.000397201
-0.000524297
0.000492609
-0.000650624
0.000580546
-0.000777064
0.000654227
-0.000897658
0.000708394
-0.00100781
0.000740217
-0.00110451
0.000749279
-0.00118622
0.000737031
-0.00125262
0.000706137
-0.00130441
0.000659896
-0.00134305
0.000601795
-0.00137055
0.00053514
-0.00138922
0.00046279
-0.00140136
0.000386985
-0.0014091
0.000309291
-0.00141424
0.00023065
-0.00141824
0.000151491
-0.00142219
7.18554e-05
-0.00142686
-8.47748e-06
-0.00143275
-8.99601e-05
-0.00143996
-0.000172911
-0.00144821
-0.000257811
-0.00145661
-0.000344972
-0.00146344
-0.000434404
-0.00146587
-0.000525542
-0.00145981
-0.000616864
-0.00143984
-0.000705426
-0.00139969
-0.000786429
-0.00133302
-0.00085301
-0.00123493
-0.000896539
-0.00110377
-0.000907682
-0.000942883
-0.000878368
-0.000761658
-0.000804442
-0.000575019
-0.000688381
-0.000400721
-0.000540921
-0.000254629
-0.000380179
-0.00014559
-0.0002273
-7.30457e-05
-9.95129e-05
-2.96283e-05
-4.5918e-06
-6.77247e-06
5.85909e-05
2.41645e-06
9.38915e-05
3.59882e-06
0.000103434
1.53549e-06
8.65906e-05
4.00774e-05
-1.56241e-05
-3.64801e-06
-5.29324e-05
3.34244e-05
-0.000107711
0.000103463
-0.000179078
0.000194026
-0.000267158
0.000296361
-0.000371118
0.00040481
-0.000487888
0.000513958
-0.00061208
0.00061679
-0.000737075
0.000705532
-0.000856449
0.000773594
-0.000965005
0.000816943
-0.0010592
0.000834404
-0.00113714
0.000827211
-0.0011984
0.000798287
-0.00124381
0.000751546
-0.0012752
0.000691279
-0.00129504
0.000621633
-0.00130611
0.000546206
-0.00131111
0.000467788
-0.00131242
0.000388291
-0.00131196
0.000308826
-0.00131118
0.00022987
-0.00131114
0.000151453
-0.00131261
7.33215e-05
-0.00131613
-4.95541e-06
-0.00132215
-8.39457e-05
-0.00133097
-0.000164086
-0.0013428
-0.000245983
-0.00135755
-0.00033023
-0.00137458
-0.000417374
-0.00139237
-0.00050775
-0.00140807
-0.000601168
-0.00141709
-0.000696405
-0.00141299
-0.000790533
-0.00138779
-0.000878211
-0.00133308
-0.000951249
-0.0012419
-0.00099886
-0.00111124
-0.00100903
-0.000944485
-0.000971199
-0.000752891
-0.000879977
-0.000554884
-0.000738931
-0.000372325
-0.00056274
-0.000224025
-0.000375604
-0.000118985
-0.000204558
-5.40793e-05
-6.95045e-05
-1.87681e-05
2.32713e-05
-2.62508e-06
7.77393e-05
2.1723e-06
9.86301e-05
1.51521e-06
8.72384e-05
4.15917e-05
-2.3359e-05
1.96936e-05
-7.28113e-05
8.28523e-05
-0.000140253
0.000170885
-0.000223915
0.000277673
-0.000323006
0.000395439
-0.000435174
0.000516967
-0.000555722
0.000634497
-0.000678237
0.000739297
-0.000795978
0.000823266
-0.00090314
0.00088075
-0.000995547
0.000909344
-0.00107083
0.000909683
-0.00112835
0.000884724
-0.00116897
0.000838912
-0.00119481
0.000777384
-0.00120878
0.00070524
-0.00121409
0.000626942
-0.00121382
0.000545935
-0.00121056
0.000464527
-0.00120627
0.000383996
-0.00120227
0.00030483
-0.0011994
0.000227002
-0.00119815
0.000150201
-0.00119881
7.39833e-05
-0.00120162
-2.14803e-06
-0.00120685
-7.87209e-05
-0.00121483
-0.000156102
-0.00122603
-0.000234787
-0.00124091
-0.000315343
-0.00125983
-0.000398455
-0.00128268
-0.000484906
-0.00130842
-0.000575429
-0.00133446
-0.000670358
-0.00135604
-0.000768961
-0.00136577
-0.000868482
-0.00135398
-0.00096304
-0.00130998
-0.00104286
-0.00122458
-0.00109444
-0.00109339
-0.00110239
-0.000920188
-0.00105318
-0.000718785
-0.000940336
-0.000511871
-0.000769655
-0.000325706
-0.000561773
-0.000181263
-0.000349004
-8.58977e-05
-0.000164875
-3.23209e-05
-3.03126e-05
-6.85208e-06
5.22631e-05
1.87675e-06
8.98903e-05
2.03944e-06
8.70703e-05
4.36301e-05
-3.10075e-05
5.06952e-05
-9.15034e-05
0.000143328
-0.00016974
0.000249108
-0.000262957
0.00037088
-0.000369253
0.000501727
-0.000484859
0.000632566
-0.000603955
0.000753586
-0.000719768
0.000855105
-0.000825982
0.000929476
-0.000917731
0.000972495
-0.000992034
0.000983644
-0.00104785
0.000965499
-0.00108595
0.000922817
-0.00110857
0.000861531
-0.00111897
0.000787779
-0.00112078
0.000707053
-0.00111746
0.000623616
-0.00111181
0.000540289
-0.00110585
0.000458565
-0.00110079
0.000378937
-0.00109723
0.000301274
-0.00109537
0.000225137
-0.00109517
0.000150004
-0.00109656
7.53758e-05
-0.00109951
8.02779e-07
-0.00110411
-7.41209e-05
-0.0011106
-0.000149609
-0.00111943
-0.000225959
-0.00113123
-0.000303536
-0.00114683
-0.000382861
-0.00116704
-0.000464696
-0.00119239
-0.000550072
-0.00122255
-0.000640199
-0.00125544
-0.000736075
-0.00128628
-0.000837645
-0.00130687
-0.000942447
-0.00130575
-0.00104397
-0.00126977
-0.00113041
-0.00118738
-0.00118479
-0.00105307
-0.00118749
-0.000871752
-0.00112166
-0.000660915
-0.000980494
-0.000448492
-0.000774197
-0.000265068
-0.000532431
-0.00013201
-0.000297936
-5.22901e-05
-0.000110038
-1.30952e-05
1.30609e-05
1.33997e-06
7.54499e-05
2.66253e-06
8.57385e-05
4.62917e-05
-3.77469e-05
8.84318e-05
-0.000107379
0.000212951
-0.000193864
0.000335585
-0.000293364
0.000470374
-0.000402865
0.000611224
-0.0005175
0.000747197
-0.00063088
0.000866963
-0.000736415
0.000960637
-0.000828574
0.00102163
-0.000903637
0.00104756
-0.000959963
0.00103997
-0.000997957
0.00100349
-0.0010198
0.000944658
-0.00102893
0.000870656
-0.00102932
0.000788172
-0.00102479
0.000702522
-0.00101842
0.000617247
-0.00101232
0.000534193
-0.00100766
0.00045391
-0.00100488
0.000376155
-0.00100393
0.000300328
-0.00100456
0.000225769
-0.00100646
0.000151902
-0.00100936
7.8278e-05
-0.00101311
4.55922e-06
-0.0010177
-6.95305e-05
-0.00102324
-0.000144068
-0.00103002
-0.000219182
-0.00103852
-0.000295028
-0.00104952
-0.000371865
-0.00106404
-0.000450165
-0.00108337
-0.000530748
-0.00110866
-0.000614903
-0.00114037
-0.000704371
-0.00117707
-0.000800938
-0.00121414
-0.000905383
-0.00124252
-0.00101559
-0.00124879
-0.00112415
-0.0012171
-0.00121648
-0.0011336
-0.00127099
-0.000992308
-0.00126294
-0.000800603
-0.0011722
-0.0005813
-0.000993502
-0.000368563
-0.000745169
-0.000196368
-0.000470133
-8.31682e-05
-0.000223241
-2.41242e-05
-4.59883e-05
-8.5444e-07
5.21695e-05
2.93979e-06
8.19401e-05
4.92306e-05
-4.28804e-05
0.000131312
-0.000119157
0.000289221
-0.00021095
0.000427375
-0.000313317
0.00057274
-0.000422286
0.00072019
-0.000532301
0.000857211
-0.000636902
0.000971562
-0.000730064
0.0010538
-0.000807276
0.00109884
-0.000866091
0.00110637
-0.000906284
0.00108016
-0.000929673
0.00102688
-0.000939638
0.000954624
-0.000940368
0.000871386
-0.000936005
0.000783809
-0.000929951
0.000696468
-0.000924507
0.000611804
-0.000920874
0.000530563
-0.000919399
0.000452437
-0.000919898
0.000376656
-0.000921958
0.000302391
-0.000925135
0.000228949
-0.000929059
0.000155829
-0.000933471
8.26945e-05
-0.000938231
9.32279e-06
-0.000943295
-6.44633e-05
-0.000948694
-0.000138665
-0.000954551
-0.000213322
-0.000961113
-0.000288463
-0.000968828
-0.000364148
-0.000978447
-0.000440543
-0.000991133
-0.000518059
-0.00100848
-0.000597557
-0.00103227
-0.000680581
-0.00106375
-0.000769451
-0.00110226
-0.000866872
-0.00114327
-0.000974577
-0.00117671
-0.00109071
-0.00118682
-0.00120637
-0.00115484
-0.00130297
-0.00106496
-0.00135283
-0.000911996
-0.00132516
-0.000707908
-0.00119759
-0.000482936
-0.000970142
-0.000277935
-0.000675135
-0.000127508
-0.000373671
-4.19163e-05
-0.000131584
-5.72375e-06
1.59748e-05
2.5816e-06
7.36258e-05
5.18114e-05
-4.59288e-05
0.000177237
-0.000126021
0.000369316
-0.000220075
0.000521431
-0.000322078
0.000674744
-0.00042734
0.000825453
-0.000530028
0.0009599
-0.000623992
0.00106553
-0.000704028
0.00113383
-0.000766767
0.00116158
-0.000811084
0.00115069
-0.000838106
0.00110718
-0.000850841
0.00103962
-0.000853456
0.000957241
-0.000850338
0.000868269
-0.000845236
0.000778709
-0.000840744
0.000691978
-0.000838214
0.000609277
-0.000838001
0.000530353
-0.000839848
0.000454287
-0.000843241
0.000380053
-0.000847654
0.000306809
-0.000852672
0.000233971
-0.000858014
0.000161176
-0.000863521
8.82069e-05
-0.000869125
1.49312e-05
-0.000874812
-5.87714e-05
-0.000880587
-0.000132885
-0.000886478
-0.000207426
-0.000892549
-0.000282388
-0.000898943
-0.00035775
-0.000905983
-0.0004335
-0.000914326
-0.000509714
-0.000925151
-0.00058673
-0.0009403
-0.000665429
-0.000962126
-0.000747624
-0.000992696
-0.000836301
-0.00103204
-0.000935234
-0.00107555
-0.00104719
-0.00111167
-0.00117025
-0.00112174
-0.0012929
-0.00108395
-0.00139062
-0.00098141
-0.0014277
-0.000811982
-0.00136702
-0.000595201
-0.00118692
-0.000370835
-0.000899502
-0.000185204
-0.000559302
-6.76221e-05
-0.000249167
-1.37013e-05
-3.79558e-05
1.5118e-06
5.8411e-05
5.33225e-05
-4.66407e-05
0.000223883
-0.000127642
0.00045032
-0.000221049
0.000614843
-0.000319865
0.000773563
-0.000418954
0.000924545
-0.000512553
0.0010535
-0.000595091
0.00114807
-0.000662325
0.00120107
-0.00071206
0.00121132
-0.000744419
0.00118305
-0.00076167
0.00112444
-0.000767636
0.00104559
-0.000766762
0.000956369
-0.000763121
0.000864631
-0.000759693
0.000775285
-0.000758123
0.000690412
-0.000758899
0.000610058
-0.000761772
0.00053323
-0.000766173
0.000458692
-0.000771518
0.000385403
-0.000777358
0.000312654
-0.000783408
0.000240027
-0.000789527
0.000167301
-0.000795665
9.43519e-05
-0.000801828
2.11001e-05
-0.000808044
-5.25491e-05
-0.000814325
-0.000126598
-0.000820677
-0.000201069
-0.000827084
-0.000275977
-0.000833521
-0.000351308
-0.000840008
-0.000427009
-0.000846708
-0.00050301
-0.000854138
-0.000579296
-0.000863446
-0.000656118
-0.000876685
-0.000734382
-0.000896761
-0.000816222
-0.00092654
-0.000905453
-0.000966599
-0.00100713
-0.00101179
-0.00112506
-0.00104823
-0.00125645
-0.00105365
-0.0013852
-0.00100334
-0.00147801
-0.00088124
-0.00148912
-0.000691775
-0.00137639
-0.000465754
-0.00112552
-0.000253443
-0.000771613
-0.000101744
-0.000400869
-2.48952e-05
-0.000114802
-2.66809e-07
3.37745e-05
5.30552e-05
-4.50049e-05
0.000268889
-0.000124123
0.000529449
-0.000214284
0.000705012
-0.000307616
0.000866901
-0.00039879
0.00101572
-0.000482377
0.00113709
-0.00055355
0.00121924
-0.000609067
0.00125659
-0.000647841
0.0012501
-0.000671051
0.00120626
-0.000681785
0.00113517
-0.000684232
0.00104804
-0.000682649
0.00095479
-0.000680441
0.000862427
-0.00067968
0.000774529
-0.000681146
0.000691882
-0.000684706
0.000613622
-0.000689794
0.000538324
-0.000695786
0.00046469
-0.000702194
0.000391818
-0.000708723
0.00031919
-0.000715239
0.000246551
-0.000721714
0.000173783
-0.000728176
0.000100822
-0.000734673
2.76046e-05
-0.00074126
-4.59543e-05
-0.000747964
-0.000119887
-0.0007548
-0.000194226
-0.000761749
-0.000269022
-0.000768749
-0.000344302
-0.0007757
-0.000420053
-0.000782496
-0.000496209
-0.000789147
-0.000572641
-0.000796018
-0.000649243
-0.000804223
-0.000726174
-0.000816046
-0.000804397
-0.000834987
-0.00088651
-0.000864679
-0.000977438
-0.00090592
-0.00108382
-0.000952154
-0.00121022
-0.000985962
-0.00135139
-0.000980713
-0.00148326
-0.000909875
-0.00155995
-0.000761702
-0.00152456
-0.000552149
-0.00133508
-0.000326754
-0.000997008
-0.000143781
-0.00058384
-3.96316e-05
-0.000218959
-2.86901e-06
-2.98725e-06
5.01859e-05
-4.11871e-05
0.000310085
-0.000115899
0.000604173
-0.000200621
0.000789745
-0.000286728
0.000953016
-0.000368899
0.0010979
-0.00044222
0.00121042
-0.000502684
0.00127971
-0.000548004
0.00130192
-0.000578044
0.00128014
-0.000594768
0.00122299
-0.0006017
0.00114211
-0.000602984
0.00104933
-0.000602353
0.000954164
-0.00060239
0.000862469
-0.000604321
0.000776466
-0.000608279
0.000695846
-0.000613788
0.000619138
-0.000620212
0.000544754
-0.000627022
0.000471507
-0.000633897
0.0003987
-0.000640696
0.000325997
-0.0006474
0.000253263
-0.00065405
0.000180441
-0.000660704
0.000107486
-0.000667425
3.43348e-05
-0.000674273
-3.90978e-05
-0.00068128
-0.000112871
-0.000688476
-0.000187023
-0.000695863
-0.000261627
-0.000703409
-0.00033675
-0.000711018
-0.000412438
-0.000718528
-0.000488693
-0.000725728
-0.000565436
-0.000732483
-0.000642484
-0.000739027
-0.000719625
-0.000746485
-0.000796936
-0.000757462
-0.00087553
-0.000776157
-0.000958741
-0.000806887
-0.00105308
-0.000850034
-0.00116707
-0.000896225
-0.0013052
-0.000922914
-0.00145657
-0.000898946
-0.00158392
-0.000798771
-0.00162474
-0.000620658
-0.00151319
-0.000397954
-0.00121971
-0.000191723
-0.000790073
-5.83733e-05
-0.000352303
-6.32904e-06
-5.50354e-05
4.38567e-05
-3.54938e-05
0.000345586
-0.00010362
0.000672316
-0.000181146
0.000867284
-0.000258805
0.00103069
-0.000331422
0.00117053
-0.000394706
0.00127371
-0.000445464
0.00133048
-0.000482255
0.00133871
-0.000505674
0.00130357
-0.000518156
0.00123548
-0.0005233
0.00114726
-0.000524887
0.00105092
-0.000525952
0.000955235
-0.000528277
0.000864801
-0.000532422
0.000780619
-0.00053813
0.000701561
-0.000544812
0.000625827
-0.000551909
0.000551859
-0.000559055
0.000478662
-0.000566088
0.000405742
-0.000572984
0.000332903
-0.00057979
0.000260079
-0.000586572
0.000187234
-0.000593395
0.000114319
-0.00060031
4.12615e-05
-0.000607372
-3.20248e-05
-0.000614613
-0.000105621
-0.000622063
-0.000179564
-0.000629746
-0.000253936
-0.000637662
-0.000328826
-0.000645769
-0.000404323
-0.000653952
-0.000480504
-0.000661994
-0.000557389
-0.000669591
-0.000634882
-0.00067648
-0.00071273
-0.000682811
-0.000790601
-0.000689814
-0.000868523
-0.000700598
-0.000947954
-0.00072021
-0.00103347
-0.000753403
-0.00113387
-0.000798955
-0.00125965
-0.00084257
-0.00141296
-0.00085503
-0.00157146
-0.000802124
-0.00167764
-0.000664974
-0.00165034
-0.000459787
-0.0014249
-0.000241841
-0.00100802
-8.10927e-05
-0.000513054
-1.06436e-05
-0.000125482
3.32135e-05
-2.83042e-05
0.000373902
-8.80482e-05
0.000732077
-0.000157037
0.000936287
-0.000225466
0.00109913
-0.000288382
0.00123345
-0.000342152
0.00132749
-0.000384347
0.00137268
-0.000414209
0.00136858
-0.000432816
0.00132218
-0.000442768
0.00124544
-0.000447447
0.00115195
-0.000450074
0.00105355
-0.000452957
0.000958126
-0.000457206
0.000869058
-0.000462935
0.000786355
-0.00046971
0.000708345
-0.000476982
0.000633108
-0.000484336
0.000559223
-0.000491567
0.000485902
-0.000498631
0.000412816
-0.000505575
0.000339857
-0.000512472
0.000266987
-0.00051939
0.000194164
-0.000526384
0.000121325
-0.000533493
4.83839e-05
-0.000540761
-2.47438e-05
-0.000548215
-9.81559e-05
-0.000555881
-0.000171887
-0.000563788
-0.000246019
-0.000571957
-0.000320648
-0.000580386
-0.000395886
-0.000589028
-0.000471855
-0.000597744
-0.000548666
-0.000606268
-0.000626353
-0.000614203
-0.00070479
-0.000621182
-0.000783618
-0.000627337
-0.000862364
-0.000634187
-0.000941099
-0.000645624
-0.00102203
-0.000667672
-0.00111182
-0.000704845
-0.00122247
-0.000752221
-0.00136558
-0.00078787
-0.00153581
-0.000775508
-0.00169
-0.000682666
-0.00174318
-0.000506494
-0.00160107
-0.000289493
-0.00122502
-0.000106788
-0.000695754
-1.58077e-05
-0.00021646
1.74061e-05
-2.00396e-05
0.000393953
-6.9971e-05
0.00078203
-0.000129445
0.000995778
-0.000188209
0.00115791
-0.000241545
0.0012868
-0.000286471
0.00137243
-0.000321221
0.00140744
-0.000345547
0.00139292
-0.000360765
0.00133741
-0.000369377
0.00125406
-0.000374339
0.00115692
-0.000378234
0.00105746
-0.000382709
0.00096261
-0.000388373
0.000874732
-0.000395092
0.000793083
-0.000402409
0.000715672
-0.000409887
0.000640597
-0.000417265
0.000566611
-0.00042446
0.000493108
-0.000431506
0.000419873
-0.000438481
0.000346844
-0.000445462
0.000273981
-0.000452508
0.000201223
-0.000459663
0.000128494
-0.00046696
5.56953e-05
-0.000474433
-1.72554e-05
-0.000482106
-9.04701e-05
-0.000489997
-0.000163983
-0.000498132
-0.000237874
-0.000506533
-0.000312237
-0.000515218
-0.000387192
-0.000524183
-0.000462882
-0.000533368
-0.000539473
-0.000542606
-0.000617108
-0.000551567
-0.000695822
-0.000559763
-0.000775417
-0.000566747
-0.000855375
-0.000572765
-0.000935078
-0.000579914
-0.00101488
-0.000593235
-0.0010985
-0.000619643
-0.00119606
-0.000661832
-0.00132339
-0.000707857
-0.00148978
-0.0007257
-0.00167216
-0.000674951
-0.00179393
-0.000534774
-0.00174124
-0.000330308
-0.00142948
-0.000133703
-0.000892358
-2.16947e-05
-0.000328465
-4.28732e-06
-1.11208e-05
0.000405088
-5.01506e-05
0.000821081
-9.94262e-05
0.00104507
-0.000148339
0.00120683
-0.000192373
0.00133085
-0.000229143
0.00140921
-0.000257443
0.00143575
-0.000277352
0.00141284
-0.000290211
0.00135028
-0.000298223
0.00126209
-0.000303801
0.00116251
-0.000308888
0.00106256
-0.000314584
0.000968316
-0.000321164
0.000881323
-0.000328393
0.000800323
-0.000335882
0.000723172
-0.000343329
0.000648054
-0.000350598
0.000573892
-0.000357692
0.000500215
-0.000364685
0.000426879
-0.000371663
0.000353835
-0.000378695
0.000281027
-0.000385835
0.000208377
-0.000393119
0.000135794
-0.000400582
6.31747e-05
-0.000408253
-9.56764e-06
-0.000416155
-8.25534e-05
-0.0004243
-0.000155825
-0.000432702
-0.000229459
-0.00044138
-0.000303548
-0.000450352
-0.00037821
-0.00045963
-0.000453595
-0.0004692
-0.000529895
-0.00047898
-0.00060732
-0.000488758
-0.000686037
-0.000498124
-0.000766045
-0.00050649
-0.000847003
-0.000513399
-0.000928164
-0.000519427
-0.00100884
-0.000527692
-0.00109023
-0.000544751
-0.001179
-0.000577624
-0.00129051
-0.000624006
-0.0014434
-0.000660684
-0.00163548
-0.00064577
-0.00180884
-0.000543962
-0.00184305
-0.000361101
-0.00161234
-0.000159609
-0.00109385
-2.83948e-05
-0.000459674
-3.26813e-05
-1.94364e-06
0.000407045
-2.92993e-05
0.000848461
-6.79056e-05
0.0010837
-0.000106942
0.00124589
-0.000142014
0.00136594
-0.000171256
0.00143847
-0.000193911
0.00145842
-0.000210235
0.00142918
-0.000221418
0.00136147
-0.000229232
0.00126991
-0.000235489
0.00116877
-0.000241544
0.00106862
-0.000248069
0.000974852
-0.000255142
0.000888408
-0.000262526
0.000807719
-0.000269937
0.000730595
-0.000277199
0.000655329
-0.000284273
0.000580978
-0.000291212
0.000507167
-0.000298104
0.000433784
-0.000305033
0.000360778
-0.000312063
0.000288074
-0.000319243
0.000215573
-0.00032661
0.000143179
-0.000334203
7.07869e-05
-0.000342054
-1.69805e-06
-0.000350189
-7.44008e-05
-0.000358616
-0.000147383
-0.000367336
-0.000220725
-0.000376359
-0.000294513
-0.000385695
-0.000368862
-0.000395357
-0.000443924
-0.000405346
-0.000519896
-0.000415631
-0.000597027
-0.000426091
-0.000675569
-0.000436446
-0.000755684
-0.000446182
-0.000837261
-0.000454626
-0.000919714
-0.000461443
-0.00100202
-0.000467928
-0.00108374
-0.000478813
-0.00116811
-0.000502182
-0.00126714
-0.000542791
-0.00140279
-0.000588076
-0.00159019
-0.00060056
-0.00179635
-0.000535617
-0.00190799
-0.000380268
-0.00176768
-0.000182431
-0.00129168
-3.5868e-05
-0.000606232
-6.85472e-05
6.98465e-06
0.000400076
-8.01837e-06
0.000863488
-3.56883e-05
0.00111139
-6.48981e-05
0.00127512
-9.13388e-05
0.00139239
-0.000113567
0.00146071
-0.000131173
0.00147604
-0.000144469
0.00144248
-0.000154377
0.00137139
-0.000162154
0.0012777
-0.000169005
0.00117564
-0.000175761
0.00107539
-0.00018277
0.000981873
-0.000190008
0.000895659
-0.000197292
0.000815016
-0.000204453
0.000737769
-0.000211422
0.000662312
-0.000218227
0.000587797
-0.000224947
0.000513901
-0.000231674
0.000440527
-0.000238488
0.000367608
-0.00024545
0.000295053
-0.000252608
0.000222749
-0.000260003
0.000150593
-0.000267684
7.84893e-05
-0.00027569
6.32906e-06
-0.000284055
-6.60166e-05
-0.000292782
-0.000138639
-0.000301865
-0.000211627
-0.0003113
-0.000285064
-0.000321089
-0.000359062
-0.000331234
-0.000433767
-0.000341741
-0.000509379
-0.000352596
-0.000586162
-0.000363735
-0.000664423
-0.000374975
-0.000744436
-0.00038594
-0.00082629
-0.000396001
-0.000909648
-0.00040446
-0.000993558
-0.000411376
-0.00107682
-0.000419385
-0.0011601
-0.00043542
-0.0012511
-0.000467881
-0.00137032
-0.000514063
-0.001544
-0.000545097
-0.00176532
-0.000512785
-0.0019403