/*--------------------------------*- C++ -*----------------------------------*\
  =========                 |
  \\      /  F ield         | OpenFOAM: The Open Source CFD Toolbox
   \\    /   O peration     | Website:  https://openfoam.org
    \\  /    A nd           | Version:  7
     \\/     M anipulation  |
\*---------------------------------------------------------------------------*/
FoamFile
{
    version     2.0;
    format      ascii;
    class       volVectorField;
    location    "100";
    object      U;
}
// * * * * * * * * * * * * * * * * * * * * * * * * * * * * * * * * * * * * * //

dimensions      [0 1 -1 0 0 0 0];

internalField   nonuniform List<vector> 
2500
(
(0.000177832 -0.000247977 0)
(0.00182669 -0.000598811 0)
(0.004436 -0.000708307 0)
(0.00708644 -0.000606167 0)
(0.00910144 -0.000425143 0)
(0.0102806 -0.000271136 0)
(0.010728 -0.000194935 0)
(0.0106471 -0.00019123 0)
(0.0101747 -0.000222011 0)
(0.0092978 -0.000243138 0)
(0.00786408 -0.000221362 0)
(0.00564143 -0.000138082 0)
(0.00237271 1.59334e-05 0)
(-0.00218691 0.000245679 0)
(-0.00824471 0.000554599 0)
(-0.0159382 0.000947319 0)
(-0.0252984 0.00142488 0)
(-0.0362096 0.00197735 0)
(-0.0483746 0.00257431 0)
(-0.0612935 0.00315692 0)
(-0.0742664 0.00363854 0)
(-0.0864265 0.0039162 0)
(-0.0968023 0.00389043 0)
(-0.104409 0.00348923 0)
(-0.108354 0.00269121 0)
(-0.107914 0.00153618 0)
(-0.102704 0.000136806 0)
(-0.0927172 -0.00134222 0)
(-0.0783144 -0.00272988 0)
(-0.060244 -0.00385636 0)
(-0.0396185 -0.00457215 0)
(-0.017866 -0.00475769 0)
(0.00346663 -0.0043222 0)
(0.0228784 -0.00331857 0)
(0.0390354 -0.00199063 0)
(0.0508559 -0.000528824 0)
(0.0577704 0.00088506 0)
(0.0598262 0.00203665 0)
(0.0576316 0.00277356 0)
(0.0522876 0.00304004 0)
(0.0450138 0.00291784 0)
(0.0369522 0.00255258 0)
(0.0290094 0.00208718 0)
(0.0217827 0.00162502 0)
(0.0155694 0.00122433 0)
(0.0104307 0.000907374 0)
(0.00628855 0.000667932 0)
(0.00306582 0.000466778 0)
(0.000873702 0.000218232 0)
(-6.76318e-05 -7.24089e-05 0)
(0.000554325 -0.00189126 0)
(0.00433552 -0.00434257 0)
(0.00944969 -0.0051006 0)
(0.0143402 -0.00439634 0)
(0.0177576 -0.00295314 0)
(0.0192348 -0.00142119 0)
(0.0188087 -0.000158285 0)
(0.016674 0.000813416 0)
(0.0128951 0.00170293 0)
(0.00726722 0.00278369 0)
(-0.00065279 0.0042674 0)
(-0.0114236 0.00625698 0)
(-0.0255698 0.00875655 0)
(-0.0434515 0.0117012 0)
(-0.0651469 0.0149553 0)
(-0.0903522 0.0182977 0)
(-0.118319 0.0214142 0)
(-0.147867 0.0239208 0)
(-0.177499 0.0254173 0)
(-0.205554 0.0255506 0)
(-0.230397 0.0240703 0)
(-0.250555 0.0208639 0)
(-0.264823 0.015971 0)
(-0.272321 0.00958759 0)
(-0.272526 0.00206042 0)
(-0.265292 -0.00613565 0)
(-0.250814 -0.0144314 0)
(-0.229448 -0.0222901 0)
(-0.201876 -0.0291573 0)
(-0.169087 -0.0344926 0)
(-0.132396 -0.0378121 0)
(-0.0934212 -0.0387376 0)
(-0.0540193 -0.0370484 0)
(-0.0161748 -0.0328217 0)
(0.018226 -0.0264708 0)
(0.047452 -0.018704 0)
(0.0701826 -0.0103255 0)
(0.0854747 -0.00218575 0)
(0.0931524 0.0048554 0)
(0.0935109 0.0101344 0)
(0.0878705 0.0133442 0)
(0.0779474 0.0145894 0)
(0.0655601 0.0142801 0)
(0.0523527 0.0129569 0)
(0.0395852 0.0111398 0)
(0.0280442 0.00922313 0)
(0.0180994 0.00739857 0)
(0.0099172 0.00559131 0)
(0.0038478 0.00348265 0)
(0.000351699 0.000996373 0)
(0.000783525 -0.00452939 0)
(0.00559313 -0.0096565 0)
(0.0114503 -0.0107939 0)
(0.0164148 -0.00883963 0)
(0.0190426 -0.00525472 0)
(0.0187727 -0.00130993 0)
(0.0155131 0.0023208 0)
(0.00923688 0.0056358 0)
(-0.000303212 0.00907399 0)
(-0.0136523 0.0131906 0)
(-0.0315134 0.0183532 0)
(-0.0544954 0.0246285 0)
(-0.0828768 0.0317997 0)
(-0.1164 0.039403 0)
(-0.154168 0.0467627 0)
(-0.1947 0.0530722 0)
(-0.236115 0.0575258 0)
(-0.276399 0.0594554 0)
(-0.313657 0.0584263 0)
(-0.346295 0.0542739 0)
(-0.373107 0.0470867 0)
(-0.39328 0.0371586 0)
(-0.40633 0.0249315 0)
(-0.412021 0.0109463 0)
(-0.410293 -0.00418961 0)
(-0.401155 -0.0198279 0)
(-0.384594 -0.0353029 0)
(-0.360824 -0.0498725 0)
(-0.330246 -0.062728 0)
(-0.293522 -0.0730341 0)
(-0.251628 -0.0799906 0)
(-0.205883 -0.0829252 0)
(-0.157949 -0.081411 0)
(-0.109761 -0.0753851 0)
(-0.0634114 -0.0652373 0)
(-0.0209716 -0.0518908 0)
(0.0157747 -0.0365847 0)
(0.0453412 -0.0207897 0)
(0.066889 -0.0058186 0)
(0.0802402 0.00711312 0)
(0.0853589 0.017014 0)
(0.083365 0.0233825 0)
(0.0758861 0.026321 0)
(0.0647726 0.026436 0)
(0.0518314 0.0245955 0)
(0.0385746 0.0216639 0)
(0.0260785 0.0182449 0)
(0.0150611 0.0144485 0)
(0.00632193 0.00980417 0)
(0.000720223 0.00372234 0)
(0.000910895 -0.00769826 0)
(0.00589057 -0.0153948 0)
(0.0110899 -0.016201 0)
(0.0143874 -0.012058 0)
(0.014332 -0.00534196 0)
(0.0103692 0.00208216 0)
(0.00225303 0.00935417 0)
(-0.0103922 0.0166074 0)
(-0.0282355 0.0245899 0)
(-0.0520688 0.034017 0)
(-0.0824803 0.0451306 0)
(-0.119507 0.057566 0)
(-0.162423 0.07044 0)
(-0.209734 0.0825408 0)
(-0.25939 0.0925651 0)
(-0.309121 0.0993625 0)
(-0.356791 0.10212 0)
(-0.400645 0.100447 0)
(-0.439418 0.094347 0)
(-0.472307 0.08413 0)
(-0.49887 0.0702919 0)
(-0.518887 0.0534131 0)
(-0.53224 0.0340908 0)
(-0.538823 0.0129131 0)
(-0.538507 -0.00952882 0)
(-0.53112 -0.0325812 0)
(-0.516497 -0.0554696 0)
(-0.494569 -0.0773009 0)
(-0.465364 -0.0970629 0)
(-0.429096 -0.113643 0)
(-0.386254 -0.125891 0)
(-0.337699 -0.132742 0)
(-0.284744 -0.13338 0)
(-0.229182 -0.127433 0)
(-0.173227 -0.115146 0)
(-0.119336 -0.0974632 0)
(-0.0699165 -0.0759556 0)
(-0.0270018 -0.0526197 0)
(0.00804475 -0.0294429 0)
(0.0344999 -0.0082314 0)
(0.0523911 0.00966569 0)
(0.0617581 0.0232571 0)
(0.0636285 0.0320508 0)
(0.0594946 0.0362529 0)
(0.0510972 0.0366778 0)
(0.0402132 0.0344236 0)
(0.0284225 0.0304535 0)
(0.0170184 0.0251424 0)
(0.00736749 0.0179394 0)
(0.000859147 0.00750968 0)
(0.000974676 -0.0108773 0)
(0.00530734 -0.0203658 0)
(0.00853899 -0.0196879 0)
(0.00858586 -0.0121873 0)
(0.00416221 -0.00124309 0)
(-0.00526049 0.0108061 0)
(-0.0201747 0.0231179 0)
(-0.0413342 0.0361391 0)
(-0.0696286 0.0507564 0)
(-0.105627 0.0674246 0)
(-0.149132 0.0857179 0)
(-0.198987 0.104389 0)
(-0.253208 0.121727 0)
(-0.309341 0.135982 0)
(-0.364916 0.145731 0)
(-0.41782 0.150083 0)
(-0.466498 0.148729 0)
(-0.509973 0.141839 0)
(-0.547728 0.1299 0)
(-0.579553 0.113545 0)
(-0.605391 0.0934367 0)
(-0.625241 0.0702044 0)
(-0.639099 0.044431 0)
(-0.64693 0.0166702 0)
(-0.648648 -0.0125235 0)
(-0.644121 -0.0425215 0)
(-0.63314 -0.0725512 0)
(-0.615406 -0.101701 0)
(-0.590584 -0.128876 0)
(-0.558367 -0.152783 0)
(-0.518591 -0.171968 0)
(-0.471393 -0.184926 0)
(-0.417388 -0.190292 0)
(-0.357836 -0.187108 0)
(-0.294729 -0.175113 0)
(-0.230746 -0.154974 0)
(-0.168994 -0.128363 0)
(-0.112552 -0.0977713 0)
(-0.0639093 -0.0660672 0)
(-0.0245248 -0.0359236 0)
(0.00527639 -0.00931979 0)
(0.0259178 0.0124281 0)
(0.0378465 0.028573 0)
(0.0422051 0.0388646 0)
(0.0404779 0.0437302 0)
(0.03435 0.0441569 0)
(0.0255692 0.0412183 0)
(0.0158148 0.0354425 0)
(0.00693246 0.0262002 0)
(0.000776065 0.0114627 0)
(0.000942917 -0.0135941 0)
(0.00371142 -0.0234512 0)
(0.00365021 -0.0197948 0)
(-0.000981681 -0.00762459 0)
(-0.0112217 0.00868736 0)
(-0.0276443 0.0265897 0)
(-0.0509945 0.0455152 0)
(-0.0821956 0.066083 0)
(-0.12185 0.0888483 0)
(-0.169649 0.113411 0)
(-0.224149 0.138284 0)
(-0.283003 0.161343 0)
(-0.343458 0.180436 0)
(-0.402884 0.193877 0)
(-0.459159 0.200692 0)
(-0.51083 0.200624 0)
(-0.557062 0.193972 0)
(-0.597484 0.181366 0)
(-0.632025 0.163574 0)
(-0.660783 0.141373 0)
(-0.683953 0.115483 0)
(-0.701781 0.0865498 0)
(-0.714522 0.0551503 0)
(-0.722394 0.0218048 0)
(-0.725527 -0.0130026 0)
(-0.723929 -0.0487627 0)
(-0.717439 -0.0848526 0)
(-0.705632 -0.120512 0)
(-0.687893 -0.154747 0)
(-0.663431 -0.186267 0)
(-0.631391 -0.213474 0)
(-0.591014 -0.234513 0)
(-0.54188 -0.247438 0)
(-0.484196 -0.250494 0)
(-0.41909 -0.242507 0)
(-0.348797 -0.22331 0)
(-0.276643 -0.194074 0)
(-0.206697 -0.157376 0)
(-0.143076 -0.116864 0)
(-0.0890457 -0.0765039 0)
(-0.0462669 -0.0396597 0)
(-0.0146602 -0.00849121 0)
(0.00687591 0.0160609 0)
(0.0195352 0.0336892 0)
(0.0247228 0.0445298 0)
(0.0240795 0.0492778 0)
(0.0193721 0.0488618 0)
(0.0124673 0.0437681 0)
(0.00549176 0.0332516 0)
(0.000561801 0.0148497 0)
(0.00075068 -0.0152566 0)
(0.000892952 -0.0234387 0)
(-0.0037143 -0.0151332 0)
(-0.0142415 0.00293209 0)
(-0.0314382 0.0257284 0)
(-0.055978 0.0507763 0)
(-0.0887062 0.0777432 0)
(-0.130256 0.106975 0)
(-0.180352 0.138102 0)
(-0.237454 0.169526 0)
(-0.298997 0.198798 0)
(-0.361981 0.223377 0)
(-0.423589 0.241274 0)
(-0.481595 0.251362 0)
(-0.534503 0.25337 0)
(-0.581483 0.24768 0)
(-0.622205 0.235062 0)
(-0.65669 0.216455 0)
(-0.685196 0.192823 0)
(-0.708158 0.165076 0)
(-0.726129 0.134024 0)
(-0.739718 0.100355 0)
(-0.749515 0.0646227 0)
(-0.756018 0.0272626 0)
(-0.75958 -0.0113848 0)
(-0.760366 -0.0510197 0)
(-0.758334 -0.0912789 0)
(-0.753073 -0.131698 0)
(-0.743874 -0.171561 0)
(-0.729686 -0.209809 0)
(-0.709157 -0.24495 0)
(-0.680744 -0.275032 0)
(-0.642932 -0.29771 0)
(-0.59457 -0.310467 0)
(-0.535309 -0.311007 0)
(-0.466055 -0.297801 0)
(-0.389317 -0.270704 0)
(-0.309233 -0.231432 0)
(-0.231132 -0.183655 0)
(-0.160519 -0.132467 0)
(-0.101709 -0.0832014 0)
(-0.0566487 -0.0400161 0)
(-0.0247319 -0.00506861 0)
(-0.00390127 0.0212512 0)
(0.00789246 0.0392593 0)
(0.0125675 0.0495233 0)
(0.0120497 0.0527786 0)
(0.0083545 0.0493513 0)
(0.00372669 0.0383762 0)
(0.000335306 0.0172978 0)
(0.000341542 -0.0151257 0)
(-0.00325682 -0.019109 0)
(-0.0134681 -0.00460138 0)
(-0.0307574 0.0204435 0)
(-0.055606 0.0507348 0)
(-0.0887206 0.0840058 0)
(-0.130706 0.119805 0)
(-0.181408 0.157637 0)
(-0.239379 0.195866 0)
(-0.301992 0.231808 0)
(-0.366066 0.262529 0)
(-0.428558 0.285651 0)
(-0.487038 0.299783 0)
(-0.539853 0.304546 0)
(-0.586071 0.300351 0)
(-0.625338 0.288107 0)
(-0.657734 0.268968 0)
(-0.683676 0.244162 0)
(-0.703841 0.214876 0)
(-0.719077 0.182178 0)
(-0.730309 0.146957 0)
(-0.738442 0.109891 0)
(-0.744287 0.071446 0)
(-0.748497 0.0319076 0)
(-0.751556 -0.00857583 0)
(-0.753752 -0.0499453 0)
(-0.75517 -0.0921214 0)
(-0.755549 -0.134988 0)
(-0.75432 -0.178215 0)
(-0.750499 -0.221152 0)
(-0.742638 -0.262684 0)
(-0.728823 -0.301111 0)
(-0.706779 -0.334078 0)
(-0.674134 -0.35865 0)
(-0.628867 -0.371577 0)
(-0.569929 -0.369822 0)
(-0.497923 -0.351324 0)
(-0.415647 -0.315859 0)
(-0.328211 -0.265742 0)
(-0.242467 -0.205972 0)
(-0.165605 -0.143452 0)
(-0.103159 -0.0852094 0)
(-0.0572935 -0.0362808 0)
(-0.0266087 0.00139305 0)
(-0.00783845 0.028241 0)
(0.00198416 0.0451986 0)
(0.00538157 0.0530747 0)
(0.0046873 0.0521386 0)
(0.00224991 0.0415026 0)
(0.00019193 0.0188221 0)
(-0.000317274 -0.0124057 0)
(-0.00864554 -0.00946639 0)
(-0.0251826 0.0125644 0)
(-0.0496324 0.045396 0)
(-0.0822359 0.0839227 0)
(-0.12353 0.125936 0)
(-0.173495 0.170361 0)
(-0.230921 0.215482 0)
(-0.293298 0.258457 0)
(-0.35736 0.295956 0)
(-0.419836 0.325115 0)
(-0.478023 0.344128 0)
(-0.530023 0.352383 0)
(-0.574732 0.350245 0)
(-0.611722 0.33874 0)
(-0.641114 0.319267 0)
(-0.663477 0.293374 0)
(-0.679717 0.262597 0)
(-0.690948 0.228328 0)
(-0.698354 0.191721 0)
(-0.703066 0.153638 0)
(-0.706076 0.114649 0)
(-0.708198 0.075064 0)
(-0.710053 0.0349868 0)
(-0.712111 -0.00562575 0)
(-0.714701 -0.0469206 0)
(-0.717984 -0.0890342 0)
(-0.721919 -0.132136 0)
(-0.726236 -0.176263 0)
(-0.730315 -0.221233 0)
(-0.733051 -0.266482 0)
(-0.732729 -0.310881 0)
(-0.726954 -0.352537 0)
(-0.712732 -0.388664 0)
(-0.686762 -0.41562 0)
(-0.646034 -0.429233 0)
(-0.58867 -0.425494 0)
(-0.514897 -0.401602 0)
(-0.427846 -0.357181 0)
(-0.333778 -0.295283 0)
(-0.241335 -0.2226 0)
(-0.159597 -0.148315 0)
(-0.0953109 -0.0814812 0)
(-0.0505371 -0.0279597 0)
(-0.0226527 0.0108555 0)
(-0.00698919 0.0364147 0)
(0.000253922 0.0501011 0)
(0.00217027 0.052531 0)
(0.0014257 0.0430479 0)
(0.000177593 0.0197253 0)
(-0.00121296 -0.00640041 0)
(-0.0149631 0.00614131 0)
(-0.0380715 0.03663 0)
(-0.0695501 0.0777124 0)
(-0.109345 0.124746 0)
(-0.157572 0.175227 0)
(-0.213343 0.227048 0)
(-0.27444 0.277224 0)
(-0.337657 0.322062 0)
(-0.39955 0.358115 0)
(-0.457117 0.383 0)
(-0.508155 0.395695 0)
(-0.551326 0.396401 0)
(-0.586082 0.386207 0)
(-0.612558 0.366753 0)
(-0.631456 0.339947 0)
(-0.6439 0.307727 0)
(-0.651255 0.271864 0)
(-0.654932 0.233818 0)
(-0.656226 0.19467 0)
(-0.65622 0.155113 0)
(-0.655755 0.115513 0)
(-0.655442 0.0759807 0)
(-0.655707 0.0364494 0)
(-0.65687 -0.00326644 0)
(-0.659209 -0.0434346 0)
(-0.662889 -0.0842867 0)
(-0.668044 -0.126132 0)
(-0.674727 -0.169242 0)
(-0.682794 -0.213806 0)
(-0.691759 -0.259811 0)
(-0.700578 -0.306848 0)
(-0.707432 -0.353848 0)
(-0.709559 -0.398771 0)
(-0.703272 -0.438373 0)
(-0.684291 -0.468176 0)
(-0.648495 -0.482856 0)
(-0.593068 -0.477157 0)
(-0.517835 -0.44734 0)
(-0.426384 -0.392887 0)
(-0.32639 -0.317903 0)
(-0.228576 -0.231363 0)
(-0.144026 -0.145347 0)
(-0.0803955 -0.0711699 0)
(-0.0389638 -0.0151481 0)
(-0.0153198 0.0224162 0)
(-0.00352869 0.0439522 0)
(0.000864255 0.0510162 0)
(0.00130646 0.0436312 0)
(0.000287939 0.0204279 0)
(-0.00227739 0.00334518 0)
(-0.0216837 0.0279035 0)
(-0.0511088 0.0673436 0)
(-0.088951 0.116732 0)
(-0.134759 0.171941 0)
(-0.188037 0.229809 0)
(-0.247007 0.287024 0)
(-0.308712 0.339559 0)
(-0.369653 0.383341 0)
(-0.426558 0.415235 0)
(-0.476881 0.433598 0)
(-0.518989 0.43828 0)
(-0.552154 0.430318 0)
(-0.57647 0.411551 0)
(-0.592731 0.384256 0)
(-0.602254 0.350818 0)
(-0.606641 0.313443 0)
(-0.60752 0.27395 0)
(-0.606338 0.233661 0)
(-0.604238 0.1934 0)
(-0.602031 0.153576 0)
(-0.600241 0.114297 0)
(-0.599172 0.0754774 0)
(-0.598984 0.0369271 0)
(-0.599797 -0.00160686 0)
(-0.601771 -0.040416 0)
(-0.605028 -0.0797137 0)
(-0.609768 -0.119799 0)
(-0.616237 -0.160998 0)
(-0.624669 -0.203671 0)
(-0.635168 -0.248168 0)
(-0.64752 -0.2947 0)
(-0.660901 -0.343103 0)
(-0.673542 -0.392466 0)
(-0.682421 -0.440664 0)
(-0.683189 -0.483952 0)
(-0.670524 -0.516842 0)
(-0.639082 -0.532562 0)
(-0.585033 -0.524303 0)
(-0.507875 -0.48723 0)
(-0.411926 -0.420875 0)
(-0.30669 -0.331018 0)
(-0.205313 -0.229828 0)
(-0.120814 -0.133017 0)
(-0.061026 -0.0540947 0)
(-0.0253671 0.00106259 0)
(-0.00718682 0.0339756 0)
(0.000209155 0.0477618 0)
(0.00166062 0.0437451 0)
(0.000482938 0.0212919 0)
(-0.00336801 0.0169727 0)
(-0.0281659 0.0555147 0)
(-0.0631996 0.103984 0)
(-0.106282 0.161279 0)
(-0.156481 0.223732 0)
(-0.212624 0.287284 0)
(-0.272205 0.347486 0)
(-0.331863 0.399638 0)
(-0.388146 0.439722 0)
(-0.438164 0.465223 0)
(-0.479934 0.475384 0)
(-0.512462 0.470995 0)
(-0.535713 0.453979 0)
(-0.550496 0.426945 0)
(-0.558264 0.392755 0)
(-0.560825 0.354116 0)
(-0.560023 0.313276 0)
(-0.557461 0.271853 0)
(-0.554353 0.230823 0)
(-0.551487 0.190635 0)
(-0.549291 0.151364 0)
(-0.547936 0.112878 0)
(-0.547437 0.074947 0)
(-0.547739 0.0373217 0)
(-0.548797 -0.00024615 0)
(-0.550661 -0.038004 0)
(-0.553397 -0.0760852 0)
(-0.557165 -0.114693 0)
(-0.562238 -0.154074 0)
(-0.568988 -0.194559 0)
(-0.57785 -0.236589 0)
(-0.589216 -0.280694 0)
(-0.603219 -0.32737 0)
(-0.619372 -0.376792 0)
(-0.636077 -0.428305 0)
(-0.650143 -0.479747 0)
(-0.65656 -0.526783 0)
(-0.648874 -0.562657 0)
(-0.620417 -0.578766 0)
(-0.566351 -0.566409 0)
(-0.486086 -0.519629 0)
(-0.385177 -0.438517 0)
(-0.275575 -0.331632 0)
(-0.173191 -0.21564 0)
(-0.0925469 -0.110542 0)
(-0.0402696 -0.0312447 0)
(-0.0125521 0.0184438 0)
(-0.0007642 0.0422732 0)
(0.00208069 0.043479 0)
(0.000705111 0.0224885 0)
(-0.00433764 0.034239 0)
(-0.0337928 0.0882267 0)
(-0.073351 0.145431 0)
(-0.12023 0.209814 0)
(-0.172981 0.278112 0)
(-0.229822 0.3453 0)
(-0.287763 0.406021 0)
(-0.343351 0.455296 0)
(-0.393412 0.489507 0)
(-0.435572 0.506969 0)
(-0.468482 0.507922 0)
(-0.491859 0.494158 0)
(-0.506406 0.468513 0)
(-0.513615 0.43431 0)
(-0.515447 0.394819 0)
(-0.513938 0.352813 0)
(-0.510866 0.310299 0)
(-0.507541 0.268471 0)
(-0.504759 0.227841 0)
(-0.502885 0.188452 0)
(-0.501981 0.150095 0)
(-0.501949 0.112473 0)
(-0.502626 0.0752926 0)
(-0.503848 0.0383086 0)
(-0.5055 0.00132181 0)
(-0.507567 -0.0358445 0)
(-0.51008 -0.0732427 0)
(-0.513116 -0.110973 0)
(-0.516866 -0.149159 0)
(-0.521637 -0.187998 0)
(-0.527879 -0.227816 0)
(-0.536188 -0.26913 0)
(-0.547226 -0.312662 0)
(-0.561502 -0.359243 0)
(-0.578933 -0.40947 0)
(-0.59818 -0.46303 0)
(-0.615918 -0.517717 0)
(-0.626422 -0.56843 0)
(-0.621978 -0.606744 0)
(-0.594508 -0.621727 0)
(-0.538309 -0.60247 0)
(-0.453213 -0.542137 0)
(-0.346842 -0.442451 0)
(-0.234398 -0.316513 0)
(-0.13472 -0.187132 0)
(-0.062677 -0.07868 0)
(-0.0214596 -0.005305 0)
(-0.00306332 0.0333096 0)
(0.00215259 0.0424078 0)
(0.000906044 0.0239495 0)
(-0.00504912 0.0545162 0)
(-0.038056 0.124931 0)
(-0.0807984 0.190294 0)
(-0.129875 0.260632 0)
(-0.183349 0.333108 0)
(-0.238973 0.401816 0)
(-0.293533 0.460789 0)
(-0.34372 0.505125 0)
(-0.386789 0.531865 0)
(-0.420961 0.540301 0)
(-0.445575 0.53176 0)
(-0.461078 0.509072 0)
(-0.468863 0.475931 0)
(-0.47094 0.436198 0)
(-0.469504 0.393279 0)
(-0.466514 0.349706 0)
(-0.463415 0.307006 0)
(-0.461058 0.265825 0)
(-0.459786 0.226201 0)
(-0.459593 0.187849 0)
(-0.460296 0.150384 0)
(-0.461665 0.113446 0)
(-0.463488 0.0767554 0)
(-0.465595 0.0401149 0)
(-0.467877 0.00338727 0)
(-0.470314 -0.0335404 0)
(-0.472925 -0.0706703 0)
(-0.475721 -0.108038 0)
(-0.47879 -0.145675 0)
(-0.482294 -0.183647 0)
(-0.486519 -0.222103 0)
(-0.491933 -0.261357 0)
(-0.49923 -0.301988 0)
(-0.509306 -0.344918 0)
(-0.523046 -0.391353 0)
(-0.540804 -0.442386 0)
(-0.561529 -0.498097 0)
(-0.58172 -0.55615 0)
(-0.594784 -0.610327 0)
(-0.591555 -0.64993 0)
(-0.56251 -0.661074 0)
(-0.501472 -0.630465 0)
(-0.409601 -0.551173 0)
(-0.297788 -0.428523 0)
(-0.185353 -0.282751 0)
(-0.0936033 -0.144384 0)
(-0.0353025 -0.0406444 0)
(-0.00742953 0.0189949 0)
(0.00159434 0.0396628 0)
(0.00106207 0.0254139 0)
(-0.00540092 0.0768778 0)
(-0.0406064 0.164286 0)
(-0.0850733 0.237054 0)
(-0.134755 0.312045 0)
(-0.187303 0.386973 0)
(-0.240181 0.455236 0)
(-0.290172 0.51057 0)
(-0.334279 0.548438 0)
(-0.370273 0.566727 0)
(-0.39701 0.565822 0)
(-0.414521 0.548178 0)
(-0.423922 0.517632 0)
(-0.427132 0.478575 0)
(-0.426424 0.435135 0)
(-0.423931 0.390538 0)
(-0.421274 0.346818 0)
(-0.419422 0.304885 0)
(-0.418749 0.264839 0)
(-0.419224 0.226338 0)
(-0.420612 0.1889 0)
(-0.42263 0.152087 0)
(-0.425037 0.115567 0)
(-0.427661 0.0791226 0)
(-0.430386 0.0426177 0)
(-0.433145 0.00596871 0)
(-0.435945 -0.0308955 0)
(-0.43881 -0.0679602 0)
(-0.441725 -0.105237 0)
(-0.444709 -0.142721 0)
(-0.447804 -0.180407 0)
(-0.451112 -0.218313 0)
(-0.454857 -0.256538 0)
(-0.459474 -0.295371 0)
(-0.46571 -0.335445 0)
(-0.474659 -0.377894 0)
(-0.487573 -0.424345 0)
(-0.505252 -0.476462 0)
(-0.526889 -0.53472 0)
(-0.548645 -0.59641 0)
(-0.562761 -0.653581 0)
(-0.558359 -0.692368 0)
(-0.524601 -0.695238 0)
(-0.455623 -0.64675 0)
(-0.355358 -0.541677 0)
(-0.239513 -0.392217 0)
(-0.132036 -0.229065 0)
(-0.0548069 -0.09085 0)
(-0.0142662 -0.00291022 0)
(0.0002869 0.0341187 0)
(0.00118116 0.0265331 0)
(-0.00533427 0.100211 0)
(-0.041274 0.20484 0)
(-0.0860112 0.284207 0)
(-0.134836 0.362525 0)
(-0.185088 0.438289 0)
(-0.234115 0.504451 0)
(-0.278871 0.554727 0)
(-0.316769 0.585162 0)
(-0.346137 0.59463 0)
(-0.366457 0.584667 0)
(-0.378387 0.558846 0)
(-0.383569 0.52188 0)
(-0.384215 0.478617 0)
(-0.382585 0.433138 0)
(-0.380506 0.388214 0)
(-0.379129 0.345227 0)
(-0.378937 0.304465 0)
(-0.379923 0.265582 0)
(-0.38183 0.228003 0)
(-0.384341 0.191189 0)
(-0.387188 0.15474 0)
(-0.390191 0.118405 0)
(-0.393251 0.0820393 0)
(-0.396317 0.0455638 0)
(-0.399365 0.00892912 0)
(-0.402432 -0.0279157 0)
(-0.405554 -0.0649594 0)
(-0.408717 -0.102215 0)
(-0.411913 -0.139682 0)
(-0.41513 -0.177342 0)
(-0.418358 -0.215163 0)
(-0.421624 -0.253121 0)
(-0.425069 -0.291264 0)
(-0.429072 -0.329846 0)
(-0.434408 -0.369557 0)
(-0.442355 -0.411774 0)
(-0.454534 -0.458629 0)
(-0.472168 -0.512435 0)
(-0.494562 -0.573972 0)
(-0.517196 -0.639651 0)
(-0.53067 -0.698755 0)
(-0.522145 -0.733027 0)
(-0.479929 -0.720736 0)
(-0.399922 -0.64549 0)
(-0.290909 -0.507263 0)
(-0.174987 -0.330046 0)
(-0.0799885 -0.158153 0)
(-0.0238485 -0.0349772 0)
(-0.00179041 0.0245292 0)
(0.0012786 0.0269474 0)
(-0.00484366 0.123331 0)
(-0.0400558 0.245154 0)
(-0.0837112 0.330362 0)
(-0.130423 0.410786 0)
(-0.177329 0.486012 0)
(-0.221807 0.548809 0)
(-0.261097 0.593106 0)
(-0.293074 0.615689 0)
(-0.316612 0.616499 0)
(-0.33176 0.59823 0)
(-0.339679 0.565485 0)
(-0.342332 0.523652 0)
(-0.341983 0.477744 0)
(-0.340651 0.43152 0)
(-0.339727 0.387117 0)
(-0.339883 0.345236 0)
(-0.341209 0.305636 0)
(-0.343467 0.267678 0)
(-0.34632 0.230702 0)
(-0.349476 0.19421 0)
(-0.352738 0.157895 0)
(-0.356012 0.121592 0)
(-0.359267 0.0852206 0)
(-0.362496 0.0487393 0)
(-0.365703 0.0121153 0)
(-0.368942 -0.0246962 0)
(-0.372259 -0.0616954 0)
(-0.375649 -0.0989048 0)
(-0.379103 -0.136341 0)
(-0.382604 -0.174006 0)
(-0.386109 -0.211877 0)
(-0.389559 -0.249904 0)
(-0.392911 -0.288023 0)
(-0.396219 -0.326226 0)
(-0.399799 -0.364735 0)
(-0.404458 -0.404315 0)
(-0.411676 -0.446668 0)
(-0.423466 -0.494566 0)
(-0.441415 -0.551049 0)
(-0.464661 -0.616929 0)
(-0.487416 -0.686771 0)
(-0.498004 -0.745462 0)
(-0.481569 -0.768887 0)
(-0.426717 -0.731278 0)
(-0.333479 -0.618401 0)
(-0.218076 -0.441477 0)
(-0.109739 -0.242549 0)
(-0.0365351 -0.0797784 0)
(-0.00470806 0.00952031 0)
(0.0013427 0.0262714 0)
(-0.0039639 0.145092 0)
(-0.0370835 0.283885 0)
(-0.0784696 0.374314 0)
(-0.122057 0.455819 0)
(-0.164878 0.529443 0)
(-0.204451 0.588036 0)
(-0.238373 0.625915 0)
(-0.264984 0.640708 0)
(-0.283656 0.633443 0)
(-0.2949 0.607922 0)
(-0.300208 0.569622 0)
(-0.301657 0.524361 0)
(-0.301355 0.477055 0)
(-0.300946 0.430934 0)
(-0.301365 0.387445 0)
(-0.302887 0.346673 0)
(-0.305349 0.308001 0)
(-0.308423 0.270646 0)
(-0.311794 0.233974 0)
(-0.315248 0.197581 0)
(-0.318676 0.16126 0)
(-0.322053 0.124917 0)
(-0.325392 0.0885159 0)
(-0.328712 0.0520306 0)
(-0.332023 0.0154325 0)
(-0.335378 -0.0213235 0)
(-0.338832 -0.0582492 0)
(-0.342386 -0.0953739 0)
(-0.346037 -0.13273 0)
(-0.349781 -0.170343 0)
(-0.353589 -0.208222 0)
(-0.357396 -0.246347 0)
(-0.361102 -0.284652 0)
(-0.364598 -0.323033 0)
(-0.367863 -0.361425 0)
(-0.371161 -0.400025 0)
(-0.375361 -0.439738 0)
(-0.382208 -0.482739 0)
(-0.394144 -0.532651 0)
(-0.412993 -0.593266 0)
(-0.437203 -0.664763 0)
(-0.458827 -0.738128 0)
(-0.463247 -0.791521 0)
(-0.43414 -0.793724 0)
(-0.362726 -0.716953 0)
(-0.256567 -0.555576 0)
(-0.141687 -0.341185 0)
(-0.052489 -0.139117 0)
(-0.00860205 -0.0123809 0)
(0.00133009 0.024086 0)
(-0.00276539 0.164462 0)
(-0.0325825 0.319846 0)
(-0.070706 0.415071 0)
(-0.1104 0.496888 0)
(-0.148672 0.568188 0)
(-0.183251 0.622148 0)
(-0.212119 0.653596 0)
(-0.234052 0.661043 0)
(-0.248839 0.646576 0)
(-0.257315 0.61499 0)
(-0.261128 0.572446 0)
(-0.262281 0.524954 0)
(-0.26259 0.477118 0)
(-0.263286 0.431551 0)
(-0.264908 0.389035 0)
(-0.267455 0.349177 0)
(-0.270647 0.311129 0)
(-0.274163 0.274089 0)
(-0.277762 0.237505 0)
(-0.28132 0.201083 0)
(-0.284801 0.164697 0)
(-0.288221 0.128302 0)
(-0.291617 0.0918784 0)
(-0.295015 0.0554044 0)
(-0.298419 0.018847 0)
(-0.301872 -0.0178407 0)
(-0.305433 -0.0546785 0)
(-0.30911 -0.0916992 0)
(-0.312895 -0.128943 0)
(-0.316801 -0.16645 0)
(-0.320819 -0.204259 0)
(-0.324914 -0.242391 0)
(-0.329005 -0.28083 0)
(-0.332957 -0.319493 0)
(-0.336602 -0.358231 0)
(-0.339852 -0.396916 0)
(-0.342953 -0.435756 0)
(-0.346906 -0.475919 0)
(-0.353829 -0.520318 0)
(-0.366631 -0.573709 0)
(-0.387072 -0.640441 0)
(-0.412003 -0.718613 0)
(-0.430128 -0.792743 0)
(-0.423595 -0.831438 0)
(-0.376466 -0.796597 0)
(-0.286475 -0.664308 0)
(-0.172677 -0.448868 0)
(-0.071128 -0.213134 0)
(-0.0136644 -0.0427209 0)
(0.00122238 0.0199541 0)
(-0.00133753 0.180585 0)
(-0.0268334 0.352037 0)
(-0.060898 0.45186 0)
(-0.0961519 0.5335 0)
(-0.129629 0.602085 0)
(-0.159306 0.65135 0)
(-0.183551 0.676706 0)
(-0.20152 0.677534 0)
(-0.213313 0.656895 0)
(-0.219945 0.620431 0)
(-0.223059 0.574785 0)
(-0.224449 0.525956 0)
(-0.225577 0.478118 0)
(-0.227292 0.433251 0)
(-0.229836 0.391579 0)
(-0.233053 0.35237 0)
(-0.236644 0.314675 0)
(-0.240349 0.27774 0)
(-0.244014 0.241121 0)
(-0.247588 0.204619 0)
(-0.251082 0.168163 0)
(-0.254535 0.131731 0)
(-0.257989 0.0953068 0)
(-0.261468 0.0588617 0)
(-0.264966 0.0223562 0)
(-0.268513 -0.0142575 0)
(-0.272175 -0.0510038 0)
(-0.27596 -0.0879173 0)
(-0.279855 -0.12504 0)
(-0.283877 -0.162418 0)
(-0.288033 -0.200105 0)
(-0.292314 -0.238155 0)
(-0.296679 -0.276603 0)
(-0.301033 -0.315436 0)
(-0.305202 -0.354546 0)
(-0.308966 -0.393724 0)
(-0.312185 -0.432782 0)
(-0.315146 -0.472011 0)
(-0.319105 -0.513081 0)
(-0.326706 -0.560067 0)
(-0.341292 -0.619138 0)
(-0.363888 -0.694384 0)
(-0.388302 -0.778928 0)
(-0.398677 -0.846558 0)
(-0.374873 -0.854124 0)
(-0.305299 -0.760859 0)
(-0.199596 -0.55923 0)
(-0.0910196 -0.299921 0)
(-0.0200379 -0.0828735 0)
(0.00105014 0.0134313 0)
(0.000217748 0.192809 0)
(-0.0201402 0.379645 0)
(-0.0495297 0.484105 0)
(-0.0799794 0.565358 0)
(-0.108579 0.631142 0)
(-0.133558 0.675956 0)
(-0.153644 0.695827 0)
(-0.168307 0.690938 0)
(-0.177847 0.665211 0)
(-0.183324 0.624964 0)
(-0.186246 0.577137 0)
(-0.188119 0.527584 0)
(-0.190049 0.479998 0)
(-0.192571 0.435793 0)
(-0.195735 0.394757 0)
(-0.199326 0.355948 0)
(-0.203084 0.3184 0)
(-0.206825 0.281445 0)
(-0.210473 0.24474 0)
(-0.214027 0.208154 0)
(-0.217523 0.171649 0)
(-0.221006 0.135207 0)
(-0.224514 0.0988038 0)
(-0.228069 0.0624042 0)
(-0.231659 0.0259616 0)
(-0.235296 -0.0105729 0)
(-0.239058 -0.0472239 0)
(-0.242957 -0.0840304 0)
(-0.246966 -0.121032 0)
(-0.251102 -0.158277 0)
(-0.255377 -0.195823 0)
(-0.259796 -0.233741 0)
(-0.264349 -0.272104 0)
(-0.268985 -0.310961 0)
(-0.273587 -0.350291 0)
(-0.277943 -0.389943 0)
(-0.281777 -0.429624 0)
(-0.284933 -0.469109 0)
(-0.287833 -0.508931 0)
(-0.292182 -0.551695 0)
(-0.301322 -0.603253 0)
(-0.31874 -0.67116 0)
(-0.343389 -0.756975 0)
(-0.364065 -0.843699 0)
(-0.360012 -0.889409 0)
(-0.312259 -0.840532 0)
(-0.220063 -0.665965 0)
(-0.110297 -0.395899 0)
(-0.0276601 -0.133702 0)
(0.00086459 0.00407312 0)
(0.00179858 0.200694 0)
(-0.0128082 0.402046 0)
(-0.0370577 0.511396 0)
(-0.0624818 0.592315 0)
(-0.0862284 0.655467 0)
(-0.10676 0.696317 0)
(-0.123129 0.711493 0)
(-0.135041 0.70189 0)
(-0.142897 0.672136 0)
(-0.147687 0.629059 0)
(-0.150695 0.579755 0)
(-0.153107 0.529854 0)
(-0.155706 0.482591 0)
(-0.158794 0.438913 0)
(-0.162315 0.398296 0)
(-0.16606 0.359688 0)
(-0.169834 0.322157 0)
(-0.173525 0.285123 0)
(-0.177113 0.248323 0)
(-0.180626 0.211672 0)
(-0.18411 0.175145 0)
(-0.187607 0.138719 0)
(-0.191152 0.102359 0)
(-0.194768 0.0660219 0)
(-0.198436 0.0296567 0)
(-0.202153 -0.00678766 0)
(-0.206012 -0.0433324 0)
(-0.210036 -0.0800251 0)
(-0.214177 -0.116904 0)
(-0.218451 -0.154014 0)
(-0.222866 -0.191416 0)
(-0.227432 -0.229184 0)
(-0.232152 -0.267411 0)
(-0.237009 -0.30619 0)
(-0.241936 -0.345576 0)
(-0.246786 -0.385524 0)
(-0.251296 -0.425802 0)
(-0.255144 -0.466014 0)
(-0.258214 -0.505969 0)
(-0.261234 -0.546789 0)
(-0.266629 -0.592754 0)
(-0.278512 -0.652169 0)
(-0.299603 -0.732821 0)
(-0.324464 -0.828614 0)
(-0.335092 -0.904808 0)
(-0.308097 -0.901044 0)
(-0.232782 -0.763768 0)
(-0.127197 -0.496593 0)
(-0.0361553 -0.194917 0)
(0.000661748 -0.00849629 0)
(0.00330813 0.204036 0)
(-0.00512847 0.418745 0)
(-0.0238981 0.533452 0)
(-0.0441717 0.614328 0)
(-0.0631522 0.675225 0)
(-0.0794888 0.712768 0)
(-0.0925176 0.724161 0)
(-0.102114 0.710876 0)
(-0.108687 0.67809 0)
(-0.113077 0.632989 0)
(-0.116289 0.582721 0)
(-0.119186 0.532674 0)
(-0.12228 0.485694 0)
(-0.125712 0.442375 0)
(-0.129387 0.401988 0)
(-0.133134 0.363441 0)
(-0.136825 0.325852 0)
(-0.140412 0.288721 0)
(-0.143908 0.251842 0)
(-0.147357 0.215154 0)
(-0.150805 0.178633 0)
(-0.15429 0.142246 0)
(-0.157845 0.10595 0)
(-0.161494 0.0696944 0)
(-0.165222 0.0334279 0)
(-0.169004 -0.0029048 0)
(-0.172953 -0.0393247 0)
(-0.17711 -0.0758856 0)
(-0.181404 -0.112628 0)
(-0.185846 -0.149597 0)
(-0.19044 -0.186849 0)
(-0.195193 -0.22446 0)
(-0.200111 -0.26253 0)
(-0.20519 -0.301175 0)
(-0.210401 -0.340506 0)
(-0.215652 -0.380569 0)
(-0.220751 -0.421254 0)
(-0.225378 -0.462205 0)
(-0.229187 -0.502922 0)
(-0.232219 -0.543464 0)
(-0.235778 -0.586231 0)
(-0.243325 -0.638298 0)
(-0.259396 -0.710553 0)
(-0.283814 -0.806939 0)
(-0.303696 -0.904246 0)
(-0.294631 -0.942313 0)
(-0.237553 -0.848864 0)
(-0.140457 -0.597456 0)
(-0.0449026 -0.264992 0)
(0.000345299 -0.0246049 0)
(0.00461907 0.202736 0)
(0.00261515 0.429494 0)
(-0.0104108 0.550061 0)
(-0.0254802 0.631411 0)
(-0.0398018 0.690588 0)
(-0.0521664 0.725599 0)
(-0.0621489 0.734181 0)
(-0.0697366 0.718239 0)
(-0.0752838 0.683337 0)
(-0.079421 0.636885 0)
(-0.0828514 0.586019 0)
(-0.0861323 0.535914 0)
(-0.0895518 0.48912 0)
(-0.093149 0.445991 0)
(-0.0968267 0.405685 0)
(-0.10047 0.367105 0)
(-0.104013 0.329426 0)
(-0.107453 0.292204 0)
(-0.110826 0.255269 0)
(-0.11418 0.218571 0)
(-0.11756 0.182081 0)
(-0.121 0.145757 0)
(-0.124531 0.109545 0)
(-0.128185 0.0733951 0)
(-0.131949 0.0372558 0)
(-0.135779 0.00106876 0)
(-0.139807 -0.0351999 0)
(-0.144098 -0.0715983 0)
(-0.148563 -0.10818 0)
(-0.153201 -0.144988 0)
(-0.158013 -0.182076 0)
(-0.163002 -0.21952 0)
(-0.16817 -0.257418 0)
(-0.173518 -0.295901 0)
(-0.179032 -0.335111 0)
(-0.18466 -0.375164 0)
(-0.190271 -0.41606 0)
(-0.195615 -0.457566 0)
(-0.200317 -0.499158 0)
(-0.204072 -0.540324 0)
(-0.20729 -0.581903 0)
(-0.212261 -0.628828 0)
(-0.223632 -0.692207 0)
(-0.244874 -0.783276 0)
(-0.269158 -0.892251 0)
(-0.274227 -0.965938 0)
(-0.235069 -0.919121 0)
(-0.149456 -0.694483 0)
(-0.0532201 -0.341566 0)
(-0.000235542 -0.0445392 0)
(0.00561125 0.197116 0)
(0.010079 0.433873 0)
(0.00311967 0.561198 0)
(-0.00675257 0.643592 0)
(-0.0165259 0.701715 0)
(-0.025092 0.735035 0)
(-0.0322308 0.741797 0)
(-0.0379996 0.724195 0)
(-0.0426555 0.688014 0)
(-0.046589 0.640778 0)
(-0.0501943 0.589581 0)
(-0.0537462 0.539437 0)
(-0.057349 0.49271 0)
(-0.0609757 0.449621 0)
(-0.0645501 0.40928 0)
(-0.068015 0.370611 0)
(-0.0713599 0.33283 0)
(-0.0746145 0.295534 0)
(-0.077828 0.25857 0)
(-0.0810509 0.221889 0)
(-0.0843254 0.185454 0)