/*--------------------------------*- C++ -*----------------------------------*\
  =========                 |
  \\      /  F ield         | OpenFOAM: The Open Source CFD Toolbox
   \\    /   O peration     | Website:  https://openfoam.org
    \\  /    A nd           | Version:  7
     \\/     M anipulation  |
\*---------------------------------------------------------------------------*/
FoamFile
{
    version     2.0;
    format      ascii;
    class       volScalarField;
    location    "1000";
    object      p;
}
// * * * * * * * * * * * * * * * * * * * * * * * * * * * * * * * * * * * * * //

dimensions      [0 2 -2 0 0 0 0];

internalField   nonuniform List<scalar> 
2500
(
6.55983e-07
7.21217e-05
-7.69795e-06
-0.000306514
-0.000780928
-0.0013685
-0.00202905
-0.00275805
-0.00358121
-0.0045392
-0.00567208
-0.00700975
-0.00856911
-0.0103499
-0.0123286
-0.0144512
-0.0166254
-0.0187196
-0.0205688
-0.0219909
-0.0228111
-0.0228899
-0.022152
-0.0206137
-0.018401
-0.01574
-0.0129522
-0.010455
-0.00871029
-0.00815602
-0.00912523
-0.011755
-0.0159329
-0.0213637
-0.0275878
-0.0340438
-0.0402028
-0.0456639
-0.0501958
-0.0537234
-0.0562968
-0.0580508
-0.0591598
-0.0597998
-0.0601228
-0.060245
-0.0602441
-0.0601628
-0.0600236
-0.0598844
-6.79917e-05
4.91745e-06
-7.88632e-05
-0.000375329
-0.000827738
-0.00137193
-0.00197278
-0.00263173
-0.00337739
-0.00425008
-0.00528862
-0.00652296
-0.00797379
-0.00964886
-0.0115365
-0.0136
-0.0157683
-0.01793
-0.0199321
-0.0215909
-0.022714
-0.0231313
-0.0227291
-0.021483
-0.0194881
-0.0169613
-0.0142397
-0.0117587
-0.00999926
-0.00941827
-0.0103645
-0.0129973
-0.0172328
-0.0227217
-0.0289617
-0.0354047
-0.0414963
-0.0467957
-0.0510633
-0.0542721
-0.0565399
-0.0580481
-0.0589902
-0.059539
-0.0598307
-0.0599625
-0.0599964
-0.0599618
-0.0598603
-0.0597286
-1.78638e-05
5.08351e-05
-5.60879e-05
-0.000378574
-0.000831
-0.00133761
-0.00186822
-0.00243565
-0.00308097
-0.00385173
-0.00479204
-0.00594229
-0.00734049
-0.00902111
-0.0110041
-0.0132784
-0.0157836
-0.0183979
-0.0209391
-0.0231805
-0.0248827
-0.025832
-0.0258766
-0.0249656
-0.0231909
-0.0207801
-0.0180701
-0.0154946
-0.0135464
-0.0127058
-0.013355
-0.0156923
-0.019673
-0.0249955
-0.031151
-0.0375182
-0.0435193
-0.0487119
-0.0528153
-0.0557639
-0.0576877
-0.0588323
-0.0594512
-0.0597492
-0.0598708
-0.0599057
-0.0599005
-0.059865
-0.0597691
-0.0596248
0.000229434
0.000267473
0.000103003
-0.000278322
-0.000754133
-0.00123547
-0.00170138
-0.00218399
-0.00274437
-0.00345358
-0.00438503
-0.00561819
-0.00723794
-0.00932128
-0.0119111
-0.0149872
-0.0184464
-0.0221005
-0.0256934
-0.0289344
-0.031539
-0.0332679
-0.0339561
-0.0335399
-0.0320911
-0.0298126
-0.0270166
-0.0241242
-0.0216301
-0.0200415
-0.0197959
-0.0211731
-0.0242222
-0.0287305
-0.0342477
-0.0401706
-0.045877
-0.0508474
-0.0547865
-0.0576043
-0.0593521
-0.0602412
-0.060553
-0.0605474
-0.060409
-0.0602475
-0.0601133
-0.0600074
-0.0598774
-0.0597125
0.000708829
0.000678673
0.00041945
-4.27463e-05
-0.000553958
-0.00102786
-0.00145895
-0.00190723
-0.00247342
-0.00327949
-0.0044625
-0.00617032
-0.0085422
-0.0116737
-0.0155792
-0.0201676
-0.0252427
-0.0305234
-0.0356791
-0.0403689
-0.0442782
-0.0471497
-0.048805
-0.0491594
-0.0482429
-0.046201
-0.0432986
-0.0399207
-0.0365398
-0.0336711
-0.0318068
-0.031335
-0.0324581
-0.0351328
-0.0390592
-0.0437319
-0.0485511
-0.0529557
-0.0565456
-0.0591335
-0.0607528
-0.0615598
-0.0617457
-0.0615607
-0.061224
-0.0608788
-0.0605989
-0.0603973
-0.060221
-0.0600441
0.00146409
0.00133001
0.00095059
0.000398958
-0.000167209
-0.000673743
-0.00114534
-0.00169486
-0.0024916
-0.00374175
-0.00567097
-0.00849334
-0.0123645
-0.0173354
-0.0233261
-0.0301284
-0.0374329
-0.0448681
-0.0520404
-0.0585701
-0.06412
-0.0684194
-0.0712804
-0.0726043
-0.0723896
-0.0707202
-0.0677937
-0.0639312
-0.0595407
-0.0550976
-0.0511044
-0.0480325
-0.0462484
-0.0459382
-0.0470558
-0.0493181
-0.0522624
-0.0553591
-0.0581409
-0.0602979
-0.0617096
-0.0624246
-0.0626068
-0.0624189
-0.0620326
-0.0616069
-0.0612412
-0.0609728
-0.0607675
-0.0605961
0.00253368
0.00227081
0.00176199
0.00111046
0.000453507
-0.000165789
-0.000835595
-0.00175162
-0.00318334
-0.00544091
-0.00882627
-0.0135686
-0.0197647
-0.0273476
-0.0360924
-0.0456508
-0.0555985
-0.0654821
-0.0748597
-0.0833314
-0.0905624
-0.0962966
-0.100362
-0.102667
-0.103208
-0.102034
-0.0992724
-0.0951573
-0.089991
-0.0841462
-0.078055
-0.0721842
-0.0669914
-0.0628656
-0.0600593
-0.0586298
-0.0584187
-0.0590873
-0.0602082
-0.0613794
-0.0623128
-0.062869
-0.0630468
-0.0629339
-0.0626343
-0.0622595
-0.061909
-0.0616402
-0.0614445
-0.0612994
0.00392394
0.00352495
0.00288589
0.00211218
0.00129688
0.000412205
-0.000727175
-0.00243047
-0.00508276
-0.00907809
-0.0147319
-0.0222002
-0.031436
-0.0421946
-0.0540767
-0.066589
-0.0792043
-0.0914129
-0.10276
-0.112868
-0.12145
-0.128307
-0.133315
-0.136411
-0.137614
-0.136984
-0.134593
-0.130586
-0.125147
-0.118506
-0.110952
-0.102835
-0.0945666
-0.0866039
-0.0794078
-0.0733787
-0.0687806
-0.0656773
-0.0639118
-0.0631518
-0.062993
-0.0630745
-0.0631515
-0.0631174
-0.0629683
-0.0627454
-0.0625117
-0.0623209
-0.0621808
-0.0620801
0.00558009
0.0050519
0.00427763
0.00333921
0.002241
0.000844702
-0.00116189
-0.00421477
-0.00879125
-0.0152995
-0.0239691
-0.0347851
-0.0474861
-0.0616141
-0.0765916
-0.0918017
-0.106656
-0.120644
-0.133357
-0.144495
-0.153864
-0.161352
-0.166901
-0.170493
-0.172172
-0.172034
-0.170126
-0.166524
-0.161315
-0.154599
-0.146503
-0.137199
-0.12693
-0.116046
-0.10501
-0.094394
-0.0848164
-0.076837
-0.0708174
-0.0668082
-0.0645313
-0.0634891
-0.0631477
-0.0630926
-0.0630933
-0.0630739
-0.0630293
-0.0629825
-0.0629375
-0.0628925
0.00735167
0.00670847
0.00578782
0.00460274
0.00302439
0.000773834
-0.002601
-0.00764093
-0.0148454
-0.0245312
-0.0367344
-0.0511888
-0.0673785
-0.0846326
-0.10223
-0.119492
-0.135843
-0.150845
-0.164197
-0.175718
-0.185321
-0.192986
-0.198721
-0.202542
-0.204512
-0.204757
-0.203312
-0.200221
-0.195514
-0.189212
-0.181325
-0.171866
-0.160884
-0.14851
-0.135019
-0.120887
-0.106824
-0.0937227
-0.0825043
-0.0738761
-0.0680884
-0.0648407
-0.0634318
-0.0630703
-0.0631455
-0.0633271
-0.0635073
-0.0636453
-0.0637204
-0.063735
0.00898062
0.0082414
0.00713888
0.00557415
0.00325002
-0.000266542
-0.00555085
-0.013185
-0.0235865
-0.0368677
-0.0527829
-0.0707713
-0.0900676
-0.109836
-0.12929
-0.147781
-0.164832
-0.180141
-0.193546
-0.204989
-0.214477
-0.222056
-0.227776
-0.231674
-0.233815
-0.234326
-0.23324
-0.230589
-0.226389
-0.220633
-0.213283
-0.20427
-0.193509
-0.180933
-0.166557
-0.15058
-0.133497
-0.116173
-0.0998186
-0.0857709
-0.0751013
-0.0682037
-0.0646341
-0.0633654
-0.0632928
-0.063636
-0.0640347
-0.0643704
-0.0645755
-0.0646503
0.0101135
0.00928309
0.00793158
0.00580991
0.0024334
-0.00277426
-0.0104608
-0.021155
-0.0350796
-0.0520494
-0.0714893
-0.0925505
-0.114275
-0.135753
-0.15624
-0.175206
-0.192336
-0.207486
-0.220627
-0.231795
-0.241057
-0.248487
-0.254148
-0.258082
-0.26034
-0.261034
-0.260188
-0.257834
-0.253993
-0.248664
-0.241812
-0.23336
-0.223181
-0.211111
-0.196979
-0.180695
-0.162384
-0.142556
-0.122266
-0.10309
-0.0868241
-0.0748835
-0.0676857
-0.0644674
-0.063751
-0.0641172
-0.0647127
-0.0652406
-0.0655777
-0.0657158
0.0103214
0.00938569
0.00769404
0.00481662
8.56456e-05
-0.00718154
-0.0176276
-0.0316233
-0.0491016
-0.0695265
-0.0919966
-0.115434
-0.138786
-0.161181
-0.182008
-0.20092
-0.217776
-0.232575
-0.245381
-0.256281
-0.265363
-0.272699
-0.278347
-0.282336
-0.2847
-0.285531
-0.284838
-0.282657
-0.279011
-0.273916
-0.26736
-0.259298
-0.249629
-0.238191
-0.224757
-0.209071
-0.190942
-0.170422
-0.148064
-0.125151
-0.103699
-0.0859978
-0.0737272
-0.0671121
-0.0648351
-0.0648798
-0.0656243
-0.0663364
-0.0668138
-0.0670272
0.00915983
0.00809338
0.00595988
0.00213948
-0.00419216
-0.0137668
-0.027134
-0.0444146
-0.0651929
-0.0885769
-0.113393
-0.138429
-0.162652
-0.185326
-0.206032
-0.224615
-0.241084
-0.255533
-0.268075
-0.278808
-0.287811
-0.295139
-0.300832
-0.304908
-0.30738
-0.308325
-0.307742
-0.305659
-0.302105
-0.297099
-0.290653
-0.282755
-0.273357
-0.262352
-0.249555
-0.234695
-0.217436
-0.197492
-0.174856
-0.150157
-0.124999
-0.101939
-0.0837723
-0.0722504
-0.067064
-0.0660893
-0.0668204
-0.0677248
-0.0683669
-0.0686808
0.00625232
0.00502274
0.00235516
-0.00254987
-0.0106302
-0.0226
-0.0388349
-0.0591436
-0.0827462
-0.108436
-0.134855
-0.16077
-0.185262
-0.20779
-0.228139
-0.246315
-0.262431
-0.276624
-0.289013
-0.299684
-0.308691
-0.316071
-0.321845
-0.32602
-0.328598
-0.329643
-0.329151
-0.327142
-0.323639
-0.318662
-0.31223
-0.30435
-0.295017
-0.284188
-0.271759
-0.257536
-0.241203
-0.222351
-0.200595
-0.17589
-0.149024
-0.122071
-0.0982556
-0.0808084
-0.0711779
-0.0680569
-0.0683736
-0.0694672
-0.0703099
-0.0707666
0.00135996
-6.33915e-05
-0.00332868
-0.0093899
-0.0192463
-0.0335312
-0.0523865
-0.0752836
-0.101104
-0.128402
-0.155736
-0.181947
-0.206297
-0.228453
-0.248375
-0.266181
-0.282032
-0.296072
-0.3084
-0.319075
-0.328127
-0.335577
-0.341436
-0.345701
-0.348371
-0.349502
-0.349093
-0.347155
-0.343703
-0.338754
-0.332321
-0.32442
-0.315061
-0.304243
-0.291936
-0.278046
-0.262369
-0.244547
-0.224078
-0.20048
-0.173716
-0.144882
-0.116747
-0.0933234
-0.0780046
-0.0713069
-0.0704487
-0.0716288
-0.0727197
-0.0733754
-0.00557005
-0.00720825
-0.0110943
-0.0183037
-0.0298442
-0.0462186
-0.0673036
-0.0922442
-0.119641
-0.147895
-0.175578
-0.201673
-0.225644
-0.247344
-0.266862
-0.284374
-0.30005
-0.31401
-0.326325
-0.337027
-0.346127
-0.353636
-0.35956
-0.363897
-0.366639
-0.367841
-0.367507
-0.365639
-0.362249
-0.357348
-0.350943
-0.343044
-0.333663
-0.322812
-0.310504
-0.296722
-0.281383
-0.264268
-0.244958
-0.222839
-0.197329
-0.1685
-0.138018
-0.109652
-0.0881775
-0.0765153
-0.0733642
-0.0743121
-0.0757101
-0.0766136
-0.0143899
-0.0162498
-0.0207366
-0.0290126
-0.0420473
-0.0601823
-0.0830273
-0.109439
-0.13781
-0.166476
-0.194092
-0.219815
-0.243301
-0.264547
-0.283719
-0.301011
-0.316572
-0.330489
-0.342802
-0.353524
-0.362654
-0.370198
-0.376163
-0.380548
-0.383344
-0.384601
-0.384331
-0.38253
-0.379208
-0.374372
-0.368024
-0.36017
-0.350813
-0.339965
-0.327646
-0.31388
-0.298669
-0.281936
-0.263432
-0.242642
-0.218802
-0.191265
-0.160424
-0.12893
-0.101855
-0.0843262
-0.0775799
-0.0776779
-0.0794048
-0.0805931
-0.0247715
-0.0268444
-0.0318742
-0.0410792
-0.0553536
-0.0748678
-0.0989863
-0.126333
-0.155168
-0.183834
-0.211108
-0.236327
-0.259304
-0.280137
-0.299025
-0.316149
-0.331624
-0.345505
-0.357808
-0.36853
-0.377667
-0.385223
-0.391208
-0.395622
-0.398458
-0.399757
-0.39954
-0.397799
-0.394543
-0.389777
-0.383503
-0.375723
-0.366436
-0.355647
-0.343368
-0.32963
-0.314472
-0.297916
-0.27988
-0.260052
-0.237768
-0.21208
-0.182382
-0.149809
-0.11859
-0.0951164
-0.0836014
-0.0819565
-0.0839094
-0.0854269
-0.0362535
-0.0385157
-0.044004
-0.0539675
-0.0691985
-0.0897049
-0.114644
-0.142469
-0.171373
-0.199754
-0.226532
-0.2512
-0.273692
-0.294162
-0.312814
-0.329799
-0.345198
-0.359035
-0.37131
-0.382012
-0.391137
-0.398689
-0.40468
-0.409111
-0.411974
-0.413304
-0.413132
-0.411442
-0.408245
-0.403546
-0.39735
-0.389657
-0.380466
-0.369777
-0.357595
-0.34394
-0.328857
-0.312407
-0.294625
-0.275404
-0.254314
-0.230463
-0.202719
-0.170829
-0.137415
-0.108829
-0.0918566
-0.0874409
-0.0893144
-0.0912343
-0.0483
-0.0507151
-0.0565627
-0.0671033
-0.0830113
-0.104154
-0.129526
-0.15747
-0.186165
-0.214093
-0.240307
-0.264431
-0.286481
-0.306638
-0.325086
-0.341947
-0.357266
-0.371048
-0.383279
-0.393948
-0.40305
-0.410588
-0.416575
-0.421016
-0.4239
-0.425252
-0.425115
-0.423468
-0.420322
-0.415684
-0.409559
-0.401952
-0.392864
-0.382294
-0.370245
-0.356728
-0.341774
-0.325449
-0.307841
-0.28899
-0.268717
-0.246384
-0.220787
-0.190747
-0.157086
-0.124937
-0.102543
-0.0944111
-0.0957122
-0.0981275
-0.060361
-0.0628819
-0.0689849
-0.0799283
-0.0962597
-0.117734
-0.143234
-0.171041
-0.199353
-0.226746
-0.252391
-0.276011
-0.297671
-0.317554
-0.335823
-0.352564
-0.367799
-0.381516
-0.393695
-0.404323
-0.413396
-0.420917
-0.426896
-0.431342
-0.434242
-0.435609
-0.435502
-0.433889
-0.430785
-0.426197
-0.420135
-0.412605
-0.403613
-0.393164
-0.381261
-0.36791
-0.353134
-0.336985
-0.319559
-0.300971
-0.281239
-0.260034
-0.236377
-0.208715
-0.176369
-0.142541
-0.115514
-0.103058
-0.103211
-0.106163
-0.0719221
-0.0744978
-0.0807511
-0.0919401
-0.108479
-0.130045
-0.155448
-0.18295
-0.210792
-0.237636
-0.262748
-0.285919
-0.307239
-0.326884
-0.34499
-0.361617
-0.376766
-0.390415
-0.40254
-0.413127
-0.422171
-0.429674
-0.435646
-0.440094
-0.443006
-0.444383
-0.444299
-0.442713
-0.439642
-0.435094
-0.429082
-0.421616
-0.412708
-0.402368
-0.390604
-0.377426
-0.362852
-0.346921
-0.329716
-0.311377
-0.292037
-0.271633
-0.249541
-0.224285
-0.194243
-0.160549
-0.130253
-0.113396
-0.111868
-0.115281
-0.0825643
-0.085101
-0.0914208
-0.102717
-0.119289
-0.140763
-0.165919
-0.193026
-0.220374
-0.246699
-0.271337
-0.294122
-0.315153
-0.334593
-0.352554
-0.369073
-0.38414
-0.397724
-0.409799
-0.42035
-0.42937
-0.43686
-0.442826
-0.447275
-0.450198
-0.45158
-0.451514
-0.449948
-0.4469
-0.442381
-0.436405
-0.428988
-0.420145
-0.409894
-0.398252
-0.385234
-0.37086
-0.355164
-0.338217
-0.320149
-0.301147
-0.281331
-0.26043
-0.237306
-0.209993
-0.177875
-0.145953
-0.125181
-0.121584
-0.125241
-0.0919706
-0.0943144
-0.100634
-0.111931
-0.128395
-0.149648
-0.174464
-0.20114
-0.228015
-0.253881
-0.27812
-0.300586
-0.321378
-0.340643
-0.358476
-0.3749
-0.389894
-0.403423
-0.415458
-0.425984
-0.43499
-0.442474
-0.448438
-0.45289
-0.455821
-0.457211
-0.457155
-0.455602
-0.452567
-0.448063
-0.442108
-0.434719
-0.425919
-0.415733
-0.404185
-0.3913
-0.377105
-0.361637
-0.344957
-0.327185
-0.308516
-0.289174
-0.269168
-0.24779
-0.223193
-0.193585
-0.161642
-0.137884
-0.132017
-0.135619
-0.0998924
-0.101908
-0.10812
-0.119339
-0.135595
-0.15653
-0.180953
-0.207202
-0.233654
-0.259138
-0.283057
-0.305271
-0.325873
-0.344996
-0.362724
-0.37907
-0.394006
-0.407496
-0.419507
-0.430021
-0.439025
-0.446514
-0.452485
-0.456944
-0.459884
-0.461285
-0.461234
-0.459689
-0.456656
-0.452153
-0.446199
-0.438816
-0.430032
-0.419879
-0.40839
-0.395602
-0.381549
-0.366277
-0.349847
-0.332372
-0.314039
-0.295118
-0.275808
-0.2558
-0.233638
-0.206973
-0.176339
-0.150757
-0.142624
-0.145878
-0.106163
-0.107763
-0.113723
-0.124791
-0.140769
-0.161327
-0.185333
-0.211171
-0.237259
-0.26244
-0.286118
-0.308145
-0.328602
-0.347617
-0.365264
-0.381552
-0.396452
-0.409923
-0.42193
-0.432451
-0.44147
-0.448977
-0.454966
-0.45944
-0.462392
-0.463805
-0.463756
-0.462216
-0.459175
-0.454659
-0.448687
-0.441286
-0.432487
-0.422331
-0.41086
-0.398121
-0.384162
-0.369036
-0.352814
-0.335607
-0.317597
-0.299066
-0.280324
-0.261377
-0.241254
-0.217568
-0.189174
-0.162953
-0.152768
-0.155447
-0.110717
-0.111842
-0.117404
-0.128225
-0.143866
-0.163993
-0.187557
-0.213003
-0.238783
-0.263742
-0.287265
-0.309181
-0.329553
-0.348499
-0.366095
-0.382351
-0.397238
-0.410713
-0.422738
-0.433286
-0.442337
-0.449876
-0.455894
-0.460385
-0.463345
-0.464762
-0.46471
-0.463173
-0.460117
-0.455573
-0.449565
-0.44212
-0.433275
-0.423078
-0.411582
-0.398843
-0.384919
-0.369877
-0.3538
-0.336804
-0.319074
-0.300896
-0.282634
-0.264514
-0.246024
-0.225087
-0.199459
-0.173655
-0.161819
-0.163783
-0.11358
-0.1142
-0.119227
-0.129689
-0.144927
-0.164569
-0.187652
-0.212701
-0.238202
-0.262995
-0.28643
-0.308298
-0.328639
-0.347562
-0.365144
-0.381402
-0.396309
-0.409822
-0.421899
-0.432508
-0.441624
-0.449227
-0.455303
-0.459844
-0.462841
-0.46428
-0.464204
-0.462637
-0.45953
-0.45492
-0.448834
-0.441307
-0.43238
-0.422104
-0.410536
-0.397742
-0.383791
-0.368764
-0.352755
-0.335893
-0.318373
-0.300485
-0.282627
-0.265157
-0.247941
-0.229383
-0.2067
-0.182153
-0.169205
-0.170407
-0.114861
-0.114978
-0.119349
-0.129312
-0.144062
-0.163149
-0.185696
-0.210318
-0.235545
-0.260205
-0.283602
-0.305478
-0.325839
-0.344783
-0.362389
-0.378681
-0.393638
-0.407219
-0.419379
-0.430078
-0.439286
-0.446978
-0.453134
-0.457741
-0.46079
-0.462268
-0.462194
-0.460607
-0.45745
-0.452764
-0.446581
-0.438935
-0.42987
-0.419447
-0.407731
-0.394803
-0.380748
-0.365655
-0.349629
-0.332811
-0.315409
-0.297727
-0.280184
-0.263224
-0.246985
-0.230387
-0.210575
-0.187876
-0.17443
-0.174901
-0.114737
-0.114387
-0.118005
-0.127297
-0.141435
-0.159872
-0.181797
-0.205928
-0.23085
-0.255382
-0.278774
-0.300705
-0.321136
-0.340147
-0.357818
-0.374181
-0.389225
-0.402909
-0.415185
-0.42601
-0.435344
-0.443156
-0.44942
-0.454117
-0.457233
-0.458757
-0.45869
-0.457082
-0.453867
-0.449088
-0.442784
-0.43499
-0.425753
-0.41514
-0.403223
-0.390089
-0.375831
-0.360555
-0.34439
-0.327501
-0.310109
-0.292528
-0.2752
-0.258619
-0.24312
-0.228072
-0.210893
-0.190391
-0.177067
-0.176899
-0.113435
-0.11269
-0.115493
-0.123919
-0.137276
-0.154929
-0.176107
-0.199635
-0.224174
-0.24854
-0.271928
-0.293943
-0.314489
-0.333616
-0.351399
-0.367878
-0.38305
-0.396879
-0.409315
-0.420306
-0.429807
-0.437776
-0.444182
-0.448997
-0.452202
-0.453783
-0.45373
-0.452102
-0.448823
-0.443937
-0.437487
-0.429509
-0.420057
-0.409198
-0.397013
-0.383595
-0.36905
-0.353496
-0.337074
-0.31997
-0.302434
-0.284817
-0.267584
-0.251255
-0.236296
-0.222431
-0.207555
-0.189391
-0.176747
-0.176076
-0.111221
-0.110179
-0.112152
-0.119515
-0.131876
-0.148564
-0.168822
-0.191583
-0.215599
-0.239707
-0.263051
-0.285154
-0.305849
-0.32514
-0.343089
-0.359737
-0.375088
-0.389111
-0.401754
-0.41296
-0.422672
-0.430843
-0.437429
-0.442396
-0.445718
-0.447376
-0.447355
-0.445704
-0.442361
-0.437356
-0.430737
-0.422544
-0.412831
-0.40167
-0.389147
-0.375362
-0.36043
-0.344481
-0.327677
-0.310222
-0.292398
-0.274587
-0.257292
-0.241071
-0.22647
-0.213465
-0.200524
-0.184669
-0.173149
-0.172136
-0.108372
-0.107147
-0.108328
-0.11446
-0.125575
-0.141064
-0.160181
-0.181952
-0.205242
-0.228935
-0.25214
-0.274299
-0.295159
-0.314661
-0.332834
-0.349715
-0.365308
-0.379584
-0.392492
-0.403968
-0.413946
-0.422368
-0.42918
-0.43434
-0.437813
-0.439575
-0.439607
-0.437941
-0.434537
-0.429405
-0.422597
-0.414157
-0.40414
-0.39262
-0.379687
-0.365447
-0.350023
-0.333558
-0.316231
-0.298274
-0.280002
-0.261835
-0.244323
-0.22806
-0.21364
-0.201194
-0.189806
-0.176105
-0.165985
-0.164797
-0.105156
-0.103862
-0.104339
-0.109138
-0.118753
-0.132763
-0.15046
-0.170962
-0.193254
-0.216301
-0.239208
-0.261343
-0.282355
-0.302104
-0.320569
-0.337758
-0.353671
-0.368277
-0.381522
-0.393335
-0.403643
-0.412375
-0.419469
-0.42487
-0.428536
-0.430436
-0.430544
-0.42888
-0.42542
-0.42016
-0.413147
-0.404432
-0.39407
-0.382134
-0.368718
-0.353932
-0.337905
-0.320796
-0.302802
-0.284184
-0.265293
-0.246598
-0.2287
-0.212243
-0.197863
-0.185692
-0.175461
-0.163659
-0.155009
-0.153786
-0.101809
-0.100542
-0.100449
-0.103902
-0.111805
-0.124027
-0.139973
-0.158863
-0.179819
-0.201916
-0.22429
-0.246257
-0.267369
-0.287386
-0.306207
-0.323796
-0.340127
-0.35516
-0.368832
-0.381068
-0.391783
-0.400898
-0.408337
-0.414037
-0.417946
-0.420024
-0.420242
-0.418603
-0.415099
-0.409711
-0.402484
-0.393469
-0.382722
-0.370315
-0.356343
-0.340919
-0.32418
-0.306297
-0.287488
-0.268047
-0.248368
-0.228971
-0.210515
-0.193697
-0.179208
-0.167106
-0.157619
-0.147372
-0.140033
-0.138847
-0.0985162
-0.0973453
-0.0968441
-0.0990453
-0.105109
-0.115242
-0.129063
-0.145941
-0.165156
-0.185923
-0.20745
-0.229035
-0.250141
-0.270414
-0.28965
-0.307739
-0.324607
-0.340187
-0.354404
-0.36717
-0.37839
-0.387975
-0.395839
-0.401907
-0.406118
-0.408423
-0.40879
-0.407206
-0.403677
-0.398168
-0.390721
-0.381387
-0.37022
-0.357291
-0.342693
-0.326542
-0.308982
-0.290197
-0.270431
-0.250011
-0.22938
-0.209115
-0.189935
-0.172593
-0.157813
-0.145644
-0.136478
-0.127365
-0.120955
-0.119748
-0.0954079
-0.094373
-0.0936331
-0.0947682
-0.0989839
-0.106786
-0.118091
-0.132504
-0.14951
-0.1685
-0.188793
-0.209707
-0.230635
-0.251108
-0.270797
-0.289486
-0.307026
-0.323302
-0.338208
-0.351639
-0.363487
-0.373651
-0.382034
-0.388553
-0.393137
-0.395731
-0.396294
-0.394803
-0.391274
-0.385658
-0.377992
-0.368325
-0.356709
-0.343211
-0.327923
-0.310963
-0.292483
-0.272681
-0.251828
-0.230288
-0.208557
-0.187273
-0.167219
-0.149191
-0.133946
-0.121536
-0.112303
-0.103824
-0.0977647
-0.0962549
-0.0925617
-0.0916812
-0.0908558
-0.0911704
-0.0936576
-0.0989873
-0.107409
-0.118875
-0.133153
-0.149861
-0.168472
-0.188356
-0.20887
-0.229432
-0.249575
-0.26895
-0.287302
-0.304439
-0.320206
-0.334465
-0.347091
-0.357967
-0.366986
-0.374056
-0.379099
-0.382052
-0.38287
-0.381522
-0.378023
-0.372322
-0.364445
-0.354438
-0.342352
-0.32825
-0.312221
-0.294387
-0.274905
-0.253992
-0.231946
-0.209173
-0.186223
-0.163798
-0.142734
-0.123872
-0.10798
-0.095074
-0.0854483
-0.076975
-0.0705129
-0.0680246
-0.0900099
-0.0892923
-0.0885042
-0.0882566
-0.0892307
-0.0920691
-0.0973171
-0.10536
-0.116367
-0.130256
-0.146695
-0.165145
-0.18495
-0.205433
-0.225983
-0.246098
-0.265388
-0.283556
-0.30037
-0.315645
-0.329223
-0.340967
-0.350761
-0.358501
-0.364104
-0.367502
-0.368645
-0.367499
-0.364067
-0.358313
-0.350245
-0.339905
-0.327341
-0.312617
-0.295818
-0.277068
-0.256535
-0.234454
-0.211151
-0.187076
-0.162829
-0.13917
-0.116984
-0.0971359
-0.0803894
-0.0666783
-0.0563445
-0.0470876
-0.0394018
-0.0346574
-0.0877439
-0.0872019
-0.0865414
-0.0859555
-0.0856648
-0.0860989
-0.0879949
-0.0922117
-0.099429
-0.109964
-0.123737
-0.140332
-0.159103
-0.179292
-0.200152
-0.221015
-0.241335
-0.260682
-0.278725
-0.295208
-0.309925
-0.322714
-0.333437
-0.341984
-0.348264
-0.352205
-0.353756
-0.352879
-0.34957
-0.343807
-0.335581
-0.324931
-0.311907
-0.296568
-0.279003
-0.259339
-0.237754
-0.214501
-0.189935
-0.164544
-0.138973
-0.114023
-0.0906107
-0.0696051
-0.0517423
-0.0368778
-0.0254603
-0.0144903
-0.00506965
0.00390548
-0.085707
-0.0853708
-0.0849077
-0.084135
-0.0827802
-0.0809469
-0.0794404
-0.0795631
-0.0825762
-0.0892919
-0.0999534
-0.114302
-0.131719
-0.151382
-0.172411
-0.193979
-0.215369
-0.236002
-0.255423
-0.273286
-0.289323
-0.30333
-0.315144
-0.324642
-0.331726
-0.336322
-0.338374
-0.337848
-0.33473
-0.329017
-0.320687
-0.309777
-0.296338
-0.280434
-0.262155
-0.241633
-0.219059
-0.194703
-0.168944
-0.142296
-0.11543
-0.0891622
-0.0644029
-0.041996
-0.0226306
-0.00612045
0.00696917
0.0207175
0.0316416
0.0474754
-0.0837783
-0.0837028
-0.0834951
-0.0825912
-0.0802586
-0.0762726
-0.0714264
-0.0673828
-0.0659774
-0.0685734
-0.0757994
-0.087595
-0.10339
-0.12231
-0.143353
-0.165537
-0.187979
-0.20994
-0.230833
-0.250201
-0.267701
-0.283074
-0.296125
-0.306711
-0.314724
-0.320086
-0.322742
-0.322657
-0.319816
-0.314229
-0.305875
-0.294788
-0.281023
-0.264651
-0.245768
-0.224516
-0.201095
-0.175791
-0.148994
-0.121225
-0.0931471
-0.0655482
-0.0392813
-0.0151113
0.0063619
0.0253816
0.0413519
0.0593342
0.0716741
0.0981377
-0.0817633
-0.0820151
-0.0820959
-0.0810057
-0.0776394
-0.0715527
-0.0635204
-0.0554687
-0.04972
-0.0481664
-0.0518488
-0.0609417
-0.0749507
-0.0929638
-0.113876
-0.136562
-0.159982
-0.183245
-0.205624
-0.226549
-0.24559
-0.262425
-0.276818
-0.288598
-0.297645
-0.303875
-0.307233
-0.307687
-0.305221
-0.29985
-0.291578
-0.280431
-0.266474
-0.249786
-0.230477
-0.208697
-0.184656
-0.158643
-0.131042
-0.10235
-0.0731775
-0.0442249
-0.0162243
0.0102071
0.0346351
0.05749
0.0783803
0.103151
0.120155
0.163205
-0.0794487
-0.0800559
-0.0804224
-0.0789815
-0.0743821
-0.0661727
-0.055196
-0.0435396
-0.0338627
-0.0284812
-0.0288141
-0.0352831
-0.047496
-0.0645308
-0.0852032
-0.108268
-0.132549
-0.157015
-0.18081
-0.203256
-0.22383
-0.242143
-0.257913
-0.270938
-0.281081
-0.288251
-0.29239
-0.29347
-0.291482
-0.286438
-0.278368
-0.267307
-0.253331
-0.236534
-0.217035
-0.194992
-0.170619
-0.144194
-0.116067
-0.0866721
-0.056512
-0.0261334
0.0039297
0.0332907
0.0617688
0.0901138
0.118331
0.153513
0.183295
0.247989
-0.0769385
-0.0777868
-0.0782838
-0.0762375
-0.0701877
-0.0597608
-0.0460959
-0.0314437
-0.018572
-0.010041
-0.00755523
-0.011751
-0.0223498
-0.0384514
-0.0588298
-0.0821558
-0.107147
-0.132657
-0.157719
-0.181555
-0.203558
-0.223275
-0.240374
-0.254622
-0.265861
-0.273991
-0.278955
-0.280725
-0.279302
-0.274705
-0.266969
-0.256146
-0.242332
-0.225644
-0.206209
-0.184184
-0.159771
-0.133217
-0.104816
-0.0748945
-0.0437971
-0.0118394
0.0207505
0.0539664
0.0880528
0.124201
0.162725
0.212383
0.259888
0.338463
-0.0755182
-0.0762155
-0.0763423
-0.0731168
-0.0652365
-0.0525856
-0.0365094
-0.0195177
-0.00438693
0.00638228
0.0108929
0.00836453
-0.00100152
-0.0163437
-0.036438
-0.0599179
-0.0854349
-0.111763
-0.137853
-0.162846
-0.186067
-0.207005
-0.225284
-0.24064
-0.252895
-0.261939
-0.26771
-0.270186
-0.269375
-0.26531
-0.258045
-0.247624
-0.234132
-0.217715
-0.198522
-0.17671
-0.152455
-0.125956
-0.097426
-0.0670642
-0.0350112
-0.00127371
0.0343798
0.0726165
0.114604
0.162671
0.217888
0.289015
0.349387
0.424364
-0.0796925
-0.078992
-0.0773816
-0.0717709
-0.0612237
-0.0459866
-0.0276642
-0.00885819
0.00765226
0.0196561
0.0253892
0.0238517
0.0152314
0.00036744
-0.0195406
-0.0431245
-0.0690078
-0.0959209
-0.122762
-0.148619
-0.172767
-0.194651
-0.21386
-0.230104
-0.24319
-0.252995
-0.259457
-0.262554
-0.262299
-0.258732
-0.251915
-0.241939
-0.22888
-0.212819
-0.193915
-0.172343
-0.148267
-0.121841
-0.0931952
-0.0623918
-0.029346
0.00630734
0.0454175
0.089699
0.142071
0.207757
0.291551
0.403476
0.495747
0.603336
-0.103124
-0.0953023
-0.0868548
-0.0760654
-0.0617023
-0.0433726
-0.0227213
-0.00232626
0.0153652
0.0281428
0.034318
0.0332044
0.0249939
0.0104768
-0.00919289
-0.0326811
-0.0586271
-0.085757
-0.11295
-0.139265
-0.163947
-0.186407
-0.206211
-0.223046
-0.236702
-0.247046
-0.25401
-0.25757
-0.257738
-0.254557
-0.248093
-0.23843
-0.225668
-0.209914
-0.191295
-0.169949
-0.146024
-0.119646
-0.090876
-0.0596526
-0.0256731
0.0118069
0.0543027
0.104735
0.168233
0.254291
0.375587
0.555642
0.767618
1.10779
-0.189958
-0.112201
-0.0806116
-0.0713821
-0.0581047
-0.0387331
-0.0170394
0.00396251
0.0217641
0.0341908
0.0398383
0.0382242
0.0296209
0.0148482
-0.0049473
-0.0284679
-0.0543988
-0.081505
-0.108692
-0.135035
-0.159781
-0.182343
-0.202278
-0.219267
-0.233094
-0.243621
-0.250772
-0.254521
-0.25488
-0.251889
-0.245613
-0.236135
-0.223555
-0.207982
-0.189537
-0.168351
-0.144557
-0.118251
-0.0894383
-0.0579597
-0.0233485
0.01542
0.0603388
0.115151
0.186414
0.286475
0.435226
0.680298
1.07931
1.82849
)
;

boundaryField
{
    movingWall
    {
        type            zeroGradient;
    }
    fixedWalls
    {
        type            zeroGradient;
    }
    frontAndBack
    {
        type            empty;
    }
}


// ************************************************************************* //
