/*--------------------------------*- C++ -*----------------------------------*\
  =========                 |
  \\      /  F ield         | OpenFOAM: The Open Source CFD Toolbox
   \\    /   O peration     | Website:  https://openfoam.org
    \\  /    A nd           | Version:  7
     \\/     M anipulation  |
\*---------------------------------------------------------------------------*/
FoamFile
{
    version     2.0;
    format      ascii;
    class       surfaceScalarField;
    location    "1000";
    object      phi;
}
// * * * * * * * * * * * * * * * * * * * * * * * * * * * * * * * * * * * * * //

dimensions      [0 3 -1 0 0 0 0];

internalField   nonuniform List<scalar> 
4900
(
1.69398e-06
-1.70995e-06
6.22222e-06
-4.52841e-06
1.17161e-05
-5.49391e-06
1.65023e-05
-4.78623e-06
1.97496e-05
-3.2473e-06
2.13884e-05
-1.63887e-06
2.17666e-05
-3.78252e-07
2.12607e-05
5.05832e-07
2.00138e-05
1.24681e-06
1.78619e-05
2.15192e-06
1.44115e-05
3.45033e-06
9.17572e-06
5.2357e-06
1.6634e-06
7.51228e-06
-8.57759e-06
1.02409e-05
-2.18967e-05
1.33191e-05
-3.84569e-05
1.65601e-05
-5.81622e-05
1.97053e-05
-8.0577e-05
2.24149e-05
-0.000104863
2.42859e-05
-0.000129763
2.48998e-05
-0.000153649
2.3886e-05
-0.000174634
2.09855e-05
-0.000190737
1.61031e-05
-0.000200083
9.34554e-06
-0.00020115
1.06709e-06
-0.000192998
-8.15244e-06
-0.000175381
-1.76164e-05
-0.000148822
-2.65593e-05
-0.000114614
-3.42086e-05
-7.47816e-05
-3.98321e-05
-3.19779e-05
-4.28037e-05
1.0682e-05
-4.26599e-05
4.99412e-05
-3.92593e-05
8.29481e-05
-3.30069e-05
0.000107526
-2.4578e-05
0.00012241
-1.48843e-05
0.000127486
-5.07589e-06
0.000123835
3.65124e-06
0.000113454
1.0381e-05
9.87349e-05
1.47189e-05
8.20213e-05
1.67136e-05
6.52509e-05
1.67704e-05
4.97696e-05
1.54813e-05
3.63117e-05
1.34579e-05
2.51048e-05
1.12069e-05
1.60412e-05
9.0636e-06
8.89424e-06
7.14693e-06
3.59477e-06
5.29948e-06
5.05346e-07
3.08943e-06
5.05349e-07
4.47127e-06
-6.18145e-06
1.38452e-05
-1.39026e-05
2.43079e-05
-1.59567e-05
3.28961e-05
-1.33745e-05
3.79981e-05
-8.34935e-06
3.92235e-05
-2.86441e-06
3.68543e-05
1.99087e-06
3.1197e-05
6.16292e-06
2.21435e-05
1.03002e-05
9.06556e-06
1.52298e-05
-9.03431e-06
2.15501e-05
-3.3257e-05
2.94583e-05
-6.45022e-05
3.87574e-05
-0.00010321
4.89481e-05
-0.000149149
5.92585e-05
-0.00020126
6.86711e-05
-0.000257596
7.60407e-05
-0.000315445
8.02643e-05
-0.000371611
8.04513e-05
-0.000422756
7.60453e-05
-0.000465744
6.68739e-05
-0.000497896
5.31371e-05
-0.000517157
3.53643e-05
-0.000522186
1.43743e-05
-0.000512438
-8.68096e-06
-0.000488007
-3.25838e-05
-0.000449528
-5.60948e-05
-0.000398205
-7.78825e-05
-0.000335866
-9.65478e-05
-0.000264986
-0.000110713
-0.000188655
-0.000119135
-0.000110447
-0.000120867
-3.42444e-05
-0.000115462
3.58794e-05
-0.000103131
9.62321e-05
-8.49308e-05
0.000143999
-6.26509e-05
0.000177256
-3.83332e-05
0.000195213
-1.43064e-05
0.000198464
7.12993e-06
0.000189106
2.40771e-05
0.000170287
3.55329e-05
0.000145597
4.14597e-05
0.000118448
4.26311e-05
9.16034e-05
4.03021e-05
6.69321e-05
3.58783e-05
4.54211e-05
3.05746e-05
2.74608e-05
2.51072e-05
1.33359e-05
1.94244e-05
3.75578e-06
1.26696e-05
4.26113e-06
5.98631e-06
-1.21679e-05
1.73347e-05
-2.52513e-05
2.8798e-05
-2.74202e-05
3.68173e-05
-2.13939e-05
3.95306e-05
-1.10628e-05
3.63491e-05
3.16885e-07
2.72099e-05
1.113e-05
1.19052e-05
2.14674e-05
-1.033e-05
3.25352e-05
-4.07731e-05
4.56727e-05
-8.07837e-05
6.15606e-05
-0.000131285
7.99595e-05
-0.000192342
9.98141e-05
-0.000262849
0.000119456
-0.000340461
0.00013687
-0.000421818
0.000150028
-0.000503005
0.000157227
-0.000580068
0.000157327
-0.000649461
0.000149845
-0.000708323
0.000134907
-0.000754569
0.00011312
-0.000786845
8.54128e-05
-0.000804386
5.29053e-05
-0.000806841
1.68292e-05
-0.000794077
-2.14451e-05
-0.00076611
-6.05507e-05
-0.000723249
-9.89557e-05
-0.000666227
-0.000134904
-0.000596284
-0.000166491
-0.000515267
-0.00019173
-0.000425694
-0.000208707
-0.000330762
-0.0002158
-0.000234257
-0.000211967
-0.000140315
-0.000197073
-5.3166e-05
-0.00017208
2.32276e-05
-0.000139045
8.58921e-05
-0.000100998
0.000133035
-6.14494e-05
0.00016369
-2.35248e-05
0.000177999
9.76802e-06
0.0001775
3.60321e-05
0.000164994
5.39649e-05
0.000144031
6.35942e-05
0.000118292
6.60413e-05
9.10376e-05
6.31329e-05
6.4742e-05
5.68702e-05
4.10648e-05
4.87844e-05
2.12078e-05
3.92814e-05
6.60726e-06
2.72701e-05
1.08684e-05
6.50804e-06
-1.86761e-05
1.75945e-05
-3.63381e-05
2.69473e-05
-3.67733e-05
3.07516e-05
-2.51985e-05
2.72014e-05
-7.51268e-06
1.56031e-05
1.1915e-05
-4.57882e-06
3.13118e-05
-3.43587e-05
5.12472e-05
-7.52599e-05
7.34363e-05
-0.000128759
9.91718e-05
-0.000195586
0.000128387
-0.00027516
0.000159533
-0.000365353
0.000190007
-0.000462678
0.00021678
-0.000562819
0.000237011
-0.000661329
0.000248538
-0.000754231
0.00025013
-0.000838388
0.000241484
-0.000911588
0.000223045
-0.00097243
0.000195749
-0.00102009
0.000160778
-0.00105407
0.000119392
-0.00107402
7.28577e-05
-0.00107963
2.24367e-05
-0.0010705
-3.05707e-05
-0.00104633
-8.47198e-05
-0.00100697
-0.000138323
-0.000952475
-0.000189396
-0.000883275
-0.00023569
-0.000800293
-0.000274712
-0.000705156
-0.000303844
-0.000600358
-0.000320598
-0.00048932
-0.000323006
-0.000376311
-0.000310082
-0.000266163
-0.000282228
-0.000163731
-0.000241477
-7.33339e-05
-0.000191395
1.75522e-06
-0.000136539
5.99626e-05
-8.17323e-05
0.000100984
-3.12539e-05
0.000125076
1.19409e-05
0.000133527
4.55142e-05
0.000128842
6.82786e-05
0.000114319
8.05649e-05
9.35388e-05
8.39129e-05
6.98647e-05
8.05443e-05
4.61132e-05
7.25359e-05
2.4635e-05
6.07597e-05
7.92794e-06
4.39772e-05
1.87963e-05
6.20467e-06
-2.4881e-05
1.48929e-05
-4.50266e-05
1.92009e-05
-4.10815e-05
1.5468e-05
-2.14658e-05
2.14724e-06
5.80783e-06
-2.16455e-05
3.57076e-05
-5.70876e-05
6.67537e-05
-0.000105905
0.000100065
-0.000169722
0.000137253
-0.000249101
0.00017855
-0.000342856
0.000222142
-0.000447968
0.000264645
-0.000560056
0.000302095
-0.000674175
0.000330899
-0.00078565
0.000348485
-0.00089066
0.000353549
-0.000986479
0.000345948
-0.00107139
0.000326394
-0.00114443
0.000296091
-0.00120513
0.000256447
-0.00125324
0.000208882
-0.00128859
0.00015475
-0.00131107
9.53346e-05
-0.00132051
3.18714e-05
-0.00131662
-3.44559e-05
-0.00129905
-0.000102291
-0.00126732
-0.000170055
-0.00122086
-0.000235854
-0.00115914
-0.000297413
-0.00108186
-0.000351993
-0.000989261
-0.000396439
-0.000882461
-0.000427397
-0.000763747
-0.00044172
-0.00063681
-0.000437019
-0.000506716
-0.000412322
-0.000379497
-0.000368696
-0.000261355
-0.000309537
-0.000157588
-0.000240306
-7.1722e-05
-0.000167598
-5.19976e-06
-9.77763e-05
4.25209e-05
-3.57799e-05
7.26854e-05
1.53497e-05
8.68969e-05
5.40672e-05
8.76829e-05
7.9779e-05
7.82519e-05
9.33438e-05
6.21161e-05
9.66802e-05
4.27361e-05
9.1916e-05
2.34062e-05
8.00896e-05
7.60258e-06
5.97809e-05
2.63989e-05
4.89757e-06
-2.97787e-05
8.8774e-06
-4.90068e-05
5.28393e-06
-3.74884e-05
-8.9325e-06
-7.24964e-06
-3.51165e-05
3.19916e-05
-7.44309e-05
7.50219e-05
-0.000128594
0.000120917
-0.000199355
0.000170826
-0.00028727
0.000225168
-0.000390815
0.000282095
-0.000506343
0.00033767
-0.00062879
0.000387093
-0.000752708
0.000426013
-0.000873189
0.00045138
-0.000986431
0.000461728
-0.00108988
0.000456994
-0.00118204
0.00043811
-0.00126221
0.000406567
-0.00133021
0.000364085
-0.00138614
0.000312386
-0.00143035
0.000253085
-0.00146324
0.00018764
-0.00148524
0.000117336
-0.00149666
4.32952e-05
-0.0014976
-3.35172e-05
-0.00148783
-0.000112065
-0.00146673
-0.000191156
-0.00143325
-0.000269334
-0.00138599
-0.00034467
-0.0013234
-0.000414587
-0.00124403
-0.000475807
-0.00114698
-0.000524441
-0.00103246
-0.000556244
-0.00090233
-0.00056715
-0.000760559
-0.000554092
-0.000613278
-0.000515977
-0.000468265
-0.00045455
-0.000333778
-0.000374794
-0.000216884
-0.000284492
-0.000121891
-0.000192769
-4.97571e-05
-0.000107914
1.15319e-06
-3.55606e-05
3.34418e-05
2.17786e-05
4.96601e-05
6.35608e-05
5.2767e-05
9.02371e-05
4.61764e-05
0.000103271
3.35912e-05
0.000104501
1.88721e-05
9.48087e-05
6.1136e-06
7.25394e-05
3.25125e-05
2.27358e-06
-3.20524e-05
-9.17653e-07
-4.58159e-05
-1.5011e-05
-2.33953e-05
-4.21985e-05
1.99376e-05
-8.36632e-05
7.34561e-05
-0.00014084
0.000132198
-0.000215427
0.000195505
-0.000308105
0.000263503
-0.000417334
0.000334398
-0.000539169
0.000403931
-0.000668063
0.000466563
-0.000798082
0.000517111
-0.000923956
0.000551886
-0.00104166
0.000569089
-0.00114856
0.000568618
-0.00124315
0.000551589
-0.00132487
0.000519829
-0.0013938
0.000475493
-0.00145049
0.000420782
-0.00149587
0.000357767
-0.00153106
0.000288267
-0.00155721
0.000213795
-0.00157539
0.000135518
-0.00158641
5.43112e-05
-0.00159075
-2.91744e-05
-0.00158844
-0.000114377
-0.00157893
-0.000200664
-0.00156104
-0.000287224
-0.00153295
-0.000372766
-0.00149222
-0.000455316
-0.00143598
-0.000532044
-0.0013613
-0.000599122
-0.00126579
-0.000651752
-0.00114843
-0.000684516
-0.0010104
-0.000692122
-0.000855869
-0.000670505
-0.000692251
-0.000618168
-0.000529593
-0.000537452
-0.000378912
-0.000435173
-0.000249688
-0.000321993
-0.000147397
-0.000210204
-7.25043e-05
-0.000110454
-2.17056e-05
-2.90201e-05
9.32117e-06
3.25341e-05
2.44342e-05
7.51241e-05
2.74173e-05
0.000100288
2.22276e-05
0.000109691
1.30452e-05
0.000103991
4.2126e-06
8.13721e-05
3.67251e-05
-1.91828e-06
-3.01343e-05
-1.4657e-05
-3.30776e-05
-4.13298e-05
3.27723e-06
-8.32278e-05
6.18353e-05
-0.000141363
0.000131591
-0.000217133
0.000207968
-0.00031132
0.000289692
-0.000422642
0.000374824
-0.000547205
0.00045896
-0.000679204
0.000535929
-0.000812251
0.000599611
-0.000940586
0.000645446
-0.00105976
0.000671061
-0.00116682
0.000676145
-0.00126013
0.00066193
-0.00133916
0.000630618
-0.00140424
0.000584909
-0.00145638
0.000527631
-0.00149706
0.000461471
-0.00152807
0.000388771
-0.00155122
0.000311419
-0.00156822
0.000230797
-0.00158051
0.000147806
-0.00158919
6.29899e-05
-0.001595
-2.33662e-05
-0.00159819
-0.000111181
-0.0015985
-0.000200353
-0.00159503
-0.000290701
-0.00158611
-0.000381685
-0.00156919
-0.000472229
-0.00154082
-0.000560417
-0.00149677
-0.000643173
-0.00143249
-0.000716035
-0.00134383
-0.000773173
-0.00122819
-0.000807763
-0.00108582
-0.00081287
-0.000921041
-0.000782951
-0.000742704
-0.000715789
-0.000563553
-0.000614323
-0.00039796
-0.000487587
-0.00025832
-0.000349844
-0.000151407
-0.000217367
-7.68657e-05
-0.000103562
-2.92309e-05
-1.51007e-05
-2.07504e-06
4.79683e-05
9.97259e-06
8.82402e-05
1.17294e-05
0.000107934
7.79095e-06
0.00010793
2.60082e-06
8.65623e-05
3.9326e-05
-7.74561e-06
-2.23888e-05
-3.19015e-05
-8.92204e-06
-7.25022e-05
4.38777e-05
-0.000129806
0.000119138
-0.000204633
0.000206419
-0.000297715
0.00030105
-0.000408158
0.000400135
-0.000532453
0.000499119
-0.000664826
0.000591333
-0.000798544
0.000669648
-0.000927296
0.000728363
-0.00104606
0.000764214
-0.00115143
0.000776428
-0.00124151
0.000766225
-0.00131575
0.000736166
-0.0013747
0.000689568
-0.00141979
0.000630003
-0.00145306
0.0005609
-0.00147683
0.000485237
-0.00149342
0.000405367
-0.00150497
0.000322966
-0.00151325
0.00023908
-0.00151969
0.000154244
-0.00152535
6.86497e-05
-0.00153096
-1.776e-05
-0.00153691
-0.000105229
-0.00154327
-0.000193996
-0.00154966
-0.000284306
-0.00155509
-0.000376256
-0.00155769
-0.000469634
-0.00155449
-0.000563618
-0.00154127
-0.000656395
-0.00151255
-0.000744751
-0.00146205
-0.000823674
-0.00138365
-0.000886164
-0.00127291
-0.000923603
-0.00112894
-0.000926927
-0.000956065
-0.000888662
-0.0007648
-0.000805589
-0.000571035
-0.000681352
-0.000392993
-0.000527885
-0.000246207
-0.000364153
-0.000138415
-0.000211354
-6.77156e-05
-8.57998e-05
-2.59036e-05
6.15623e-06
-4.31591e-06
6.66526e-05
3.86787e-06
9.97505e-05
4.28119e-06
0.000107516
1.7145e-06
8.91291e-05
4.10405e-05
-1.4936e-05
-7.453e-06
-5.16694e-05
2.7811e-05
-0.000106495
9.87027e-05
-0.000178737
0.000191381
-0.000268747
0.000296428
-0.000375982
0.000408285
-0.000497575
0.000521727
-0.000628127
0.000629671
-0.000760784
0.00072399
-0.000888728
0.000797591
-0.0010063
0.00084593
-0.00110949
0.000867413
-0.00119607
0.000863007
-0.00126538
0.000835535
-0.00131816
0.000788945
-0.00135623
0.000727639
-0.00138213
0.000655904
-0.00139869
0.000577457
-0.00140864
0.000495185
-0.00141436
0.000411084
-0.00141774
0.000326347
-0.0014202
0.00024154
-0.00142276
0.000156807
-0.00142614
7.20294e-05
-0.00143084
-1.30646e-05
-0.00143724
-9.88271e-05
-0.00144563
-0.000185607
-0.00145613
-0.000273799
-0.00146858
-0.000363813
-0.00148223
-0.000455985
-0.00149544
-0.000550403
-0.00150521
-0.00064662
-0.0015068
-0.000743163
-0.00149363
-0.00083685
-0.00145769
-0.000922098
-0.00139074
-0.000990558
-0.0012862
-0.00103146
-0.0011418
-0.00103307
-0.000961988
-0.000985397
-0.000759297
-0.000884043
-0.00055329
-0.000733892
-0.000366432
-0.00055101
-0.000217207
-0.000360579
-0.00011335
-0.000189657
-5.01943e-05
-5.69992e-05
-1.63417e-05
3.27999e-05
-1.2915e-06
8.47004e-05
2.74771e-06
0.000103477
1.64822e-06
9.02287e-05
4.26887e-05
-2.29904e-05
1.55373e-05
-7.24507e-05
7.7271e-05
-0.000140715
0.000166966
-0.000226269
0.000276934
-0.000328588
0.000398748
-0.000445546
0.000525243
-0.000572476
0.000648657
-0.000702741
0.000759936
-0.000829186
0.000850435
-0.000945504
0.000913909
-0.00104703
0.000947461
-0.00113104
0.000951414
-0.00119665
0.000928617
-0.00124468
0.000883571
-0.00127729
0.000821557
-0.00129749
0.000747832
-0.00130856
0.000666982
-0.00131364
0.000582528
-0.00131528
0.000496829
-0.00131541
0.000411214
-0.0013153
0.00032624
-0.00131573
0.000241973
-0.00131715
0.000158225
-0.00131981
7.46895e-05
-0.00132391
-8.96535e-06
-0.0013297
-9.30388e-05
-0.00133749
-0.000177819
-0.00134768
-0.000263612
-0.00136068
-0.000350807
-0.00137678
-0.000439882
-0.00139579
-0.000531395
-0.00141655
-0.00062586
-0.00143634
-0.000723375
-0.00145024
-0.000822952
-0.00145075
-0.000921583
-0.00142812
-0.00101319
-0.00137171
-0.00108787
-0.00127267
-0.00113211
-0.00112731
-0.00113076
-0.000940493
-0.00107086
-0.000727384
-0.000947001
-0.000511984
-0.00076641
-0.000321273
-0.00055129
-0.000175853
-0.000335077
-8.16237e-05
-0.000151229
-2.96219e-05
-1.92018e-05
-5.39673e-06
6.04752e-05
2.49166e-06
9.5589e-05
2.18099e-06
9.05394e-05
4.48697e-05
-3.11669e-05
4.6704e-05
-9.24329e-05
0.000138537
-0.000172427
0.00024696
-0.000268677
0.000373184
-0.000379524
0.000509595
-0.000501284
0.000647003
-0.000627963
0.000775336
-0.000752386
0.000884359
-0.00086771
0.00096576
-0.000968552
0.00101475
-0.00105153
0.00103044
-0.00111538
0.00101526
-0.00116082
0.000974061
-0.0011902
0.000912948
-0.00120689
0.000838254
-0.00121466
0.000755598
-0.00121698
0.000669298
-0.00121663
0.000582185
-0.00121557
0.000495763
-0.00121492
0.000410564
-0.00121521
0.000326534
-0.0012166
0.000243357
-0.00121902
0.00016065
-0.00122239
7.80611e-05
-0.00122667
-4.68217e-06
-0.00123195
-8.7766e-05
-0.00123842
-0.000171341
-0.0012465
-0.000255533
-0.00125678
-0.000340534
-0.00126999
-0.000426673
-0.00128687
-0.000514508
-0.00130788
-0.00060485
-0.00133259
-0.000698663
-0.00135886
-0.000796692
-0.00138178
-0.000898659
-0.00139306
-0.00100192
-0.00138113
-0.00109979
-0.00133287
-0.00118037
-0.00123694
-0.00122669
-0.00108843
-0.00121937
-0.000893328
-0.0011421
-0.00067059
-0.000989148
-0.000449594
-0.000772286
-0.000261709
-0.000522961
-0.000127803
-0.000285135
-4.91605e-05
-9.78438e-05
-1.12792e-05
2.2594e-05
2.15666e-06
8.21532e-05
2.88048e-06
8.98157e-05
4.77502e-05
-3.85903e-05
8.52941e-05
-0.000109888
0.000209834
-0.000199146
0.000336218
-0.000302823
0.000476861
-0.000418062
0.000624833
-0.000539904
0.000768845
-0.000661608
0.000897039
-0.000776057
0.000998808
-0.000877171
0.00106687
-0.000960788
0.00109837
-0.00102502
0.00109467
-0.00107023
0.00106048
-0.00109873
0.00100256
-0.00111413
0.000928346
-0.00112055
0.000844673
-0.00112184
0.000756893
-0.00112105
0.000668508
-0.00112019
0.000581321
-0.00112031
0.000495878
-0.00112174
0.000412001
-0.00112442
0.000329211
-0.00112807
0.000247004
-0.00113239
0.000164968
-0.00113714
8.28189e-05
-0.00114221
3.84017e-07
-0.00114756
-8.24159e-05
-0.00115329
-0.00016561
-0.00115965
-0.000249179
-0.00116705
-0.000333131
-0.00117616
-0.000417561
-0.00118792
-0.000502747
-0.0012035
-0.000589274
-0.00122399
-0.000678169
-0.00124978
-0.0007709
-0.00127944
-0.000869005
-0.0013083
-0.000973052
-0.00132731
-0.00108078
-0.00132294
-0.00118474
-0.00127929
-0.00127034
-0.00118259
-0.00131607
-0.00102737
-0.00129732
-0.000822053
-0.00119447
-0.000590994
-0.00100334
-0.000369961
-0.000743995
-0.000193732
-0.000461365
-7.99974e-05
-0.000211578
-2.19532e-05
-3.545e-05
2.44994e-07
5.99552e-05
3.27217e-06
8.67886e-05
5.10224e-05
-4.44935e-05
0.000129787
-0.000123385
0.000288725
-0.000218956
0.000431789
-0.000326529
0.000584434
-0.000442166
0.00074047
-0.000560055
0.000886733
-0.000673246
0.00101023
-0.000775149
0.00110071
-0.000860757
0.00115248
-0.000927329
0.00116494
-0.000974577
0.00114191
-0.00100446
0.00109036
-0.00102056
0.00101867
-0.00102727
0.000935052
-0.00102878
0.000846186
-0.00102845
0.000756556
-0.00102842
0.000668488
-0.00102977
0.000582665
-0.00103271
0.000498816
-0.001037
0.000416296
-0.00104224
0.000334453
-0.00104803
0.000252791
-0.00105405
0.000170991
-0.00106011
8.88793e-05
-0.00106611
6.37779e-06
-0.001072
-7.65234e-05
-0.00107782
-0.000159792
-0.00108363
-0.000243363
-0.00108962
-0.000327151
-0.00109609
-0.000411083
-0.00110369
-0.000495153
-0.00111342
-0.000579545
-0.00112674
-0.00066485
-0.00114533
-0.000752302
-0.00117045
-0.00084389
-0.00120148
-0.000942023
-0.00123401
-0.00104825
-0.00125804
-0.00116071
-0.00125777
-0.00127062
-0.00121431
-0.00135952
-0.00111178
-0.00139985
-0.000945345
-0.0013609
-0.000727997
-0.00122069
-0.000491691
-0.000980301
-0.000279047
-0.000674009
-0.000125358
-0.000365267
-3.96828e-05
-0.000121125
-4.39552e-06
2.46679e-05
3.03045e-06
7.93629e-05
5.40529e-05
-4.83056e-05
0.000178093
-0.000131941
0.00037236
-0.000230677
0.000530524
-0.000338707
0.000692465
-0.000451252
0.000853014
-0.000562083
0.000997565
-0.000664498
0.00111264
-0.000752751
0.00118896
-0.000823105
0.00122284
-0.000874314
0.00121615
-0.000907621
0.00117522
-0.000926282
0.00110902
-0.000934695
0.00102708
-0.000937356
0.000937713
-0.000937966
0.000846795
-0.000938956
0.000757546
-0.000941483
0.000671015
-0.00094575
0.000586932
-0.000951424
0.000504491
-0.000958001
0.000422873
-0.000965019
0.000341471
-0.000972152
0.000259923
-0.000979212
0.000178051
-0.000986116
9.57841e-05
-0.000992845
1.31061e-05
-0.0009994
-6.99685e-05
-0.00100579
-0.000153407
-0.00101199
-0.00023716
-0.001018
-0.000321144
-0.00102384
-0.000405237
-0.00102971
-0.000489289
-0.00103606
-0.00057319
-0.00104389
-0.000657023
-0.00105485
-0.000741342
-0.00107118
-0.000827554
-0.00109497
-0.000918234
-0.0011264
-0.00101682
-0.00116115
-0.00112596
-0.00118791
-0.00124386
-0.00118801
-0.00135942
-0.00113938
-0.00144848
-0.00102484
-0.00147545
-0.000842458
-0.00140307
-0.00061289
-0.00120987
-0.000377869
-0.00090903
-0.000185656
-0.000557479
-6.59174e-05
-0.000240864
-1.23391e-05
-2.89102e-05
2.03978e-06
6.49841e-05
5.60927e-05
-4.96975e-05
0.00022779
-0.000135066
0.000457729
-0.000233884
0.000629342
-0.00033929
0.00079787
-0.000445947
0.000959671
-0.000547614
0.00109923
-0.000638158
0.00120319
-0.000712885
0.00126369
-0.000769385
0.00127934
-0.000807832
0.0012546
-0.000830742
0.00119813
-0.000842222
0.0011205
-0.000846891
0.00103175
-0.000848814
0.000939636
-0.000850808
0.00084879
-0.000854286
0.000761024
-0.000859539
0.000676268
-0.000866211
0.000593603
-0.00087373
0.000512011
-0.000881587
0.00043073
-0.000889443
0.000349328
-0.000897134
0.000267614
-0.000904618
0.000185535
-0.000911924
0.00010309
-0.000919101
2.02836e-05
-0.000926194
-6.28756e-05
-0.000933216
-0.000146385
-0.00094014
-0.000230236
-0.000946895
-0.000314389
-0.000953369
-0.000398762
-0.000959451
-0.000483207
-0.000965129
-0.000567512
-0.000970698
-0.000651454
-0.000977058
-0.000734981
-0.000986022
-0.000818591
-0.00100034
-0.000903913
-0.00102293
-0.000994232
-0.00105468
-0.00109421
-0.00109092
-0.00120762
-0.00111819
-0.00133215
-0.00111422
-0.00145245
-0.00105384
-0.00153583
-0.000920406
-0.0015365
-0.000718453
-0.00141182
-0.000480154
-0.00114733
-0.000258195
-0.000779439
-0.000101475
-0.000397583
-2.37488e-05
-0.000106637
3.0709e-07
4.09283e-05
5.63998e-05
-4.85827e-05
0.000276373
-0.000132732
0.000541877
-0.000228815
0.000725425
-0.000329024
0.000898079
-0.000427754
0.0010584
-0.000519062
0.00119054
-0.000597606
0.00128173
-0.000659811
0.0013259
-0.000704535
0.00132406
-0.000733149
0.00128321
-0.00074905
0.00121403
-0.000756683
0.00112813
-0.000760379
0.00103545
-0.000763415
0.000942672
-0.00076762
0.000852994
-0.000773527
0.000766931
-0.000780852
0.000683593
-0.000788997
0.000601748
-0.000797405
0.000520419
-0.000805713
0.000439038
-0.000813762
0.000357377
-0.000821539
0.000275391
-0.000829109
0.000193106
-0.000836564
0.000110545
-0.000843989
2.77082e-05
-0.000851446
-5.54182e-05
-0.000858965
-0.000138866
-0.000866538
-0.000222663
-0.000874106
-0.00030682
-0.000881546
-0.000391322
-0.000888661
-0.000476092
-0.000895211
-0.000560962
-0.000901012
-0.000645653
-0.000906171
-0.000729822
-0.00091149
-0.000813272
-0.000918947
-0.000896456
-0.000931862
-0.000981317
-0.000953965
-0.00107211
-0.000986535
-0.00117505
-0.00102378
-0.00129491
-0.00104886
-0.00142736
-0.00103505
-0.00154964
-0.00095496
-0.0016166
-0.00079595
-0.00157083
-0.000574184
-0.00136909
-0.000337145
-0.00101648
-0.000146093
-0.000588635
-3.90008e-05
-0.000213729
-2.30753e-06
4.2349e-06
5.40922e-05
-4.50809e-05
0.000321453
-0.000125279
0.000622075
-0.000216199
0.000816344
-0.000309211
0.000991092
-0.00039868
0.00114787
-0.000479188
0.00127105
-0.000546293
0.00134884
-0.000597505
0.00137711
-0.000632766
0.00135932
-0.000654323
0.00130477
-0.000666015
0.00122572
-0.000672168
0.00113428
-0.000676476
0.00103975
-0.000681306
0.000947502
-0.00068761
0.000859298
-0.000695311
0.000774632
-0.000703853
0.000692135
-0.000712642
0.000610537
-0.00072127
0.000529047
-0.000729564
0.000447332
-0.000737517
0.00036533
-0.000745217
0.000283091
-0.00075278
0.000200668
-0.000760313
0.000118079
-0.000767904
3.52989e-05
-0.000775615
-4.77071e-05
-0.00078348
-0.000131001
-0.000791511
-0.000214632
-0.000799682
-0.00029865
-0.000807913
-0.000383091
-0.000816047
-0.000467957
-0.00082383
-0.000553179
-0.000830913
-0.00063857
-0.000836953
-0.000723782
-0.000841893
-0.000808332
-0.000846484
-0.000891865
-0.000852953
-0.000974848
-0.000865282
-0.00105978
-0.000887988
-0.00115234
-0.000922216
-0.00126068
-0.000959667
-0.00138991
-0.000978443
-0.00153086
-0.000946929
-0.00164811
-0.000838178
-0.00167958
-0.000649361
-0.00155791
-0.000414533
-0.00125131
-0.000197724
-0.000805444
-5.87544e-05
-0.000352698
-5.87597e-06
-4.86434e-05
4.82163e-05
-3.94648e-05
0.000360918
-0.000113308
0.000695918
-0.000197078
0.000900114
-0.000281442
0.00107546
-0.000360913
0.00122734
-0.000430737
0.00134087
-0.000487383
0.00140548
-0.000529324
0.00141905
-0.000557331
0.00138733
-0.000574157
0.00132159
-0.000583681
0.00123525
-0.000589774
0.00114037
-0.000595341
0.00104532
-0.000601902
0.000954064
-0.000609762
0.000867158
-0.000618515
0.000783386
-0.000627567
0.000701186
-0.000636456
0.000619427
-0.000644966
0.000537557
-0.000653076
0.000455442
-0.000660882
0.000373136
-0.000668513
0.000290722
-0.000676092
0.000208247
-0.00068372
0.000125706
-0.000691469
4.3048e-05
-0.000699392
-3.97833e-05
-0.000707522
-0.000122871
-0.000715873
-0.00020628
-0.000724444
-0.000290079
-0.0007332
-0.000374336
-0.000742051
-0.000459106
-0.00075082
-0.00054441
-0.000759204
-0.000630186
-0.000766763
-0.000716222
-0.000773019
-0.000802076
-0.000777786
-0.000887098
-0.00078185
-0.000970785
-0.000787864
-0.00105377
-0.000800671
-0.00113954
-0.000825417
-0.00123593
-0.000862023
-0.00135331
-0.000897581
-0.00149531
-0.000903349
-0.00164234
-0.000843938
-0.00173899
-0.000698426
-0.00170342
-0.000482129
-0.0014676
-0.000252283
-0.00103529
-8.3155e-05
-0.000521826
-1.03783e-05
-0.00012142
3.7838e-05
-3.21063e-05
0.000393024
-9.75664e-05
0.000761377
-0.000172637
0.000975184
-0.000247387
0.00115021
-0.00031658
0.00129653
-0.000376192
0.00140048
-0.000423542
0.00145283
-0.00045788
0.00145339
-0.000480518
0.00140996
-0.000494368
0.00133544
-0.000503029
0.00124391
-0.000509732
0.00114708
-0.000516598
0.00105219
-0.000524472
0.000961938
-0.00053326
0.000875946
-0.000542452
0.000792578
-0.000551549
0.000710283
-0.000560264
0.000628142
-0.000568538
0.000545831
-0.000576455
0.000463358
-0.000584151
0.000380833
-0.000591764
0.000298335
-0.000599402
0.000215886
-0.000607151
0.000133455
-0.000615068
5.09654e-05
-0.000623198
-3.1653e-05
-0.000631565
-0.000114504
-0.000640184
-0.000197662
-0.000649059
-0.000281203
-0.000658178
-0.000365216
-0.000667499
-0.000449785
-0.000676925
-0.000534984
-0.000686261
-0.00062085
-0.000695159
-0.000707324
-0.000703091
-0.000794144
-0.000709454
-0.000880734
-0.000713997
-0.000966242
-0.000717712
-0.00105005
-0.000723965
-0.00113328
-0.000738655
-0.00122124
-0.00076705
-0.00132491
-0.000805898
-0.00145646
-0.000834793
-0.00161345
-0.000817229
-0.00175656
-0.000718483
-0.00180217
-0.000533322
-0.00165276
-0.00030449
-0.00126412
-0.000111193
-0.000715123
-1.58176e-05
-0.000216796
2.20203e-05
-2.34294e-05
0.000416453
-7.88602e-05
0.000816808
-0.000144077
0.0010404
-0.000208633
0.00121476
-0.000267586
0.00135549
-0.000317637
0.00145053
-0.000356852
0.00149205
-0.000385048
0.00148158
-0.000403789
0.00142871
-0.000415859
0.00134751
-0.000424367
0.00125242
-0.000431844
0.00115455
-0.000439733
0.00106007
-0.000448409
0.000970615
-0.000457588
0.000885126
-0.000466796
0.000801786
-0.000475681
0.000719168
-0.000484114
0.000636575
-0.000492141
0.000553858
-0.000499896
0.000471114
-0.000507524
0.000388461
-0.000515148
0.000305959
-0.000522861
0.000223599
-0.000530734
0.000141328
-0.000538818
5.90495e-05
-0.000547153
-2.33175e-05
-0.000555757
-0.0001059
-0.000564641
-0.000188778
-0.000573807
-0.000272037
-0.000583248
-0.000355775
-0.000592941
-0.000440091
-0.000602838
-0.000525087
-0.00061283
-0.000610858
-0.000622697
-0.000697457
-0.000632035
-0.000784805
-0.00064022
-0.000872549
-0.000646548
-0.000959914
-0.000650803
-0.0010458
-0.000654453
-0.00112963
-0.000661988
-0.00121371
-0.000680439
-0.00130646
-0.000713855
-0.00142304
-0.00075249
-0.00157481
-0.000765473
-0.00174358
-0.000710796
-0.00185685
-0.000564274
-0.00179929
-0.00034931
-0.00147909
-0.000140874
-0.000923558
-2.20918e-05
-0.000335579
-7.15626e-08
-1.3875e-05
0.000430328
-5.79874e-05
0.00086092
-0.000112522
0.00109493
-0.000166595
0.00126883
-0.000215535
0.00140443
-0.000256723
0.00149172
-0.000288841
0.00152417
-0.000312066
0.00150481
-0.000327969
0.00144461
-0.000338987
0.00135853
-0.000347628
0.00126106
-0.000355758
0.00116268
-0.000364284
0.0010686
-0.000373298
0.000979629
-0.000382471
0.000894299
-0.000391434
0.000810749
-0.000399982
0.000727716
-0.000408099
0.000644692
-0.000415891
0.00056165
-0.000423504
0.000478727
-0.000431072
0.00039603
-0.000438702
0.000313588
-0.000446471
0.000231369
-0.000454446
0.000149303
-0.000462679
6.72825e-05
-0.000471211
-1.47851e-05
-0.000480056
-9.70549e-05
-0.000489222
-0.000179612
-0.000498704
-0.000262555
-0.000508492
-0.000345987
-0.000518567
-0.000430016
-0.000528896
-0.000514757
-0.000539421
-0.000600334
-0.000550013
-0.000686865
-0.000560412
-0.000774406
-0.000570139
-0.000862822
-0.000578458
-0.000951595
-0.0005846
-0.00103965
-0.000588581
-0.00112565
-0.000592781
-0.00120951
-0.000603282
-0.00129596
-0.000627741
-0.00139858
-0.000666062
-0.00153649
-0.000697426
-0.00171221
-0.00067972
-0.00187455
-0.000574154
-0.00190485
-0.000383025
-0.00167022
-0.000169621
-0.00113696
-2.94107e-05
-0.000475789
-2.94823e-05
-3.86288e-06
0.000434191
-3.57123e-05
0.000892769
-7.89799e-05
0.0011382
-0.000122474
0.00131233
-0.000161716
0.00144367
-0.000194684
0.00152469
-0.000220554
0.00155004
-0.000239675
0.00152393
-0.000253433
0.00145837
-0.000263779
0.00136888
-0.000272582
0.00126986
-0.000281117
0.00117122
-0.000289902
0.00107739
-0.000298885
0.000988612
-0.00030778
0.000903195
-0.000316344
0.000819313
-0.000324491
0.000735862
-0.000332277
0.000652477
-0.00033983
0.000569204
-0.000347291
0.000486188
-0.000354778
0.000403516
-0.00036238
0.00032119
-0.000370169
0.000239158
-0.000378209
0.000157343
-0.000386562
7.56356e-05
-0.000395274
-6.07291e-06
-0.00040436
-8.79679e-05
-0.000413826
-0.000170147
-0.000423658
-0.000252722
-0.00043384
-0.000335804
-0.00044435
-0.000419507
-0.000455158
-0.000503949
-0.000466224
-0.000589268
-0.00047747
-0.000675618
-0.000488736
-0.000763139
-0.000499698
-0.00085186
-0.00050977
-0.000941523
-0.000518101
-0.00103132
-0.000523958
-0.0011198
-0.000527933
-0.00120553
-0.000533945
-0.00128995
-0.00054993
-0.0013826
-0.000582239
-0.00150418
-0.000621353
-0.0016731
-0.000631278
-0.00186462
-0.000564676
-0.00197146
-0.000403753
-0.00183114
-0.000194994
-0.00134572
-3.78373e-05
-0.000632945
-6.73196e-05
6.06956e-06
0.000428121
-1.27035e-05
0.000911542
-4.43424e-05
0.00116984
-7.72611e-05
0.00134525
-0.000107124
0.00147353
-0.000132406
0.00154997
-0.000152657
0.00157029
-0.000168258
0.00153953
-0.000180275
0.00147038
-0.000190091
0.00137869
-0.000198948
0.00127872
-0.000207616
0.00117989
-0.00021634
0.00108611
-0.000225021
0.000997292
-0.000233457
0.000911631
-0.000241525
0.000827381
-0.000249225
0.000743563
-0.000256654
0.000659906
-0.000263943
0.000576493
-0.000271216
0.000493462
-0.000278577
0.000410877
-0.000286106
0.00032872
-0.00029387
0.000246923
-0.000301933
0.000165407
-0.000310371
8.40733e-05
-0.000319238
2.79413e-06
-0.000328559
-7.86457e-05
-0.000338336
-0.00016037
-0.000348549
-0.00024251
-0.000359173
-0.00032518
-0.000370181
-0.000408499
-0.000381542
-0.000492587
-0.000393222
-0.000577588
-0.000405164
-0.000663676
-0.000417264
-0.000751039
-0.000429307
-0.000839818
-0.000440871
-0.000929959
-0.000451241
-0.00102095
-0.000459482
-0.00111156
-0.000465115
-0.0011999
-0.000469906
-0.00128516
-0.000480059
-0.00137244
-0.000504632
-0.00147961
-0.000543847
-0.00163388
-0.000571849
-0.00183662
-0.000539263
-0.00200404
-0.000411392
-0.00195901
-0.00021523
-0.00154188
-4.69484e-05
-0.000801227