/*--------------------------------*- C++ -*----------------------------------*\
  =========                 |
  \\      /  F ield         | OpenFOAM: The Open Source CFD Toolbox
   \\    /   O peration     | Website:  https://openfoam.org
    \\  /    A nd           | Version:  7
     \\/     M anipulation  |
\*---------------------------------------------------------------------------*/
FoamFile
{
    version     2.0;
    format      ascii;
    class       volVectorField;
    location    "1000";
    object      U;
}
// * * * * * * * * * * * * * * * * * * * * * * * * * * * * * * * * * * * * * //

dimensions      [0 1 -1 0 0 0 0];

internalField   nonuniform List<vector> 
2500
(
(0.000206389 -0.000202317 0)
(0.00186419 -0.00057168 0)
(0.00447379 -0.00069789 0)
(0.00716307 -0.000600143 0)
(0.00922918 -0.000419006 0)
(0.0104504 -0.000264352 0)
(0.0109301 -0.000188033 0)
(0.0108809 -0.000185919 0)
(0.0104502 -0.000219911 0)
(0.00963352 -0.000245468 0)
(0.00828154 -0.000228701 0)
(0.00616191 -0.00015076 0)
(0.0030173 -2.59903e-06 0)
(-0.00139605 0.000221162 0)
(-0.00728281 0.000523664 0)
(-0.0147755 0.000908453 0)
(-0.0238967 0.00137555 0)
(-0.0345163 0.00191333 0)
(-0.0463165 0.00248857 0)
(-0.0587712 0.00303899 0)
(-0.0711521 0.0034748 0)
(-0.0825654 0.00369139 0)
(-0.0920222 0.0035903 0)
(-0.0985395 0.00310631 0)
(-0.101252 0.00223367 0)
(-0.0994856 0.00103039 0)
(-0.092972 -0.000372753 0)
(-0.0817842 -0.00181013 0)
(-0.0663895 -0.00310816 0)
(-0.0476445 -0.00409996 0)
(-0.0267679 -0.00464056 0)
(-0.00524223 -0.00460727 0)
(0.0154068 -0.00393775 0)
(0.0337091 -0.00278675 0)
(0.0483575 -0.00137386 0)
(0.0583957 0.000123171 0)
(0.0634429 0.00149464 0)
(0.0637116 0.00253246 0)
(0.0600072 0.00311069 0)
(0.0534954 0.00322421 0)
(0.0454078 0.00298623 0)
(0.0368481 0.00254964 0)
(0.0286534 0.00204887 0)
(0.0213439 0.00157456 0)
(0.0151496 0.00117444 0)
(0.0100815 0.0008636 0)
(0.00603016 0.000631391 0)
(0.00290184 0.000436148 0)
(0.000795663 0.000192892 0)
(-8.19623e-05 -8.73607e-05 0)
(0.000565785 -0.00182075 0)
(0.00437265 -0.00431897 0)
(0.00958061 -0.00511789 0)
(0.0146026 -0.0044409 0)
(0.0181601 -0.00299823 0)
(0.0197665 -0.00145756 0)
(0.0194604 -0.000192143 0)
(0.0174532 0.000766031 0)
(0.0138298 0.00162584 0)
(0.00840122 0.00266605 0)
(0.000730557 0.00410392 0)
(-0.00973854 0.0060454 0)
(-0.0235352 0.00849467 0)
(-0.0410219 0.0113846 0)
(-0.0622789 0.0145769 0)
(-0.0869986 0.0178457 0)
(-0.114423 0.0208707 0)
(-0.143358 0.0232594 0)
(-0.172281 0.0246032 0)
(-0.19951 0.0245448 0)
(-0.223391 0.0228373 0)
(-0.242442 0.0193808 0)
(-0.255465 0.0142398 0)
(-0.261602 0.00764649 0)
(-0.260379 -9.09957e-06 0)
(-0.25173 -0.00821098 0)
(-0.235847 -0.0163886 0)
(-0.213179 -0.0239881 0)
(-0.184493 -0.0304468 0)
(-0.150876 -0.0352306 0)
(-0.113738 -0.037877 0)
(-0.074777 -0.0380423 0)
(-0.035903 -0.0355819 0)
(0.000950042 -0.0306784 0)
(0.0339364 -0.0238302 0)
(0.0613791 -0.0157631 0)
(0.0819608 -0.00729832 0)
(0.0949595 0.000681626 0)
(0.10024 0.00733324 0)
(0.0984163 0.0120741 0)
(0.0909425 0.0147063 0)
(0.0796048 0.0154314 0)
(0.0662293 0.0147139 0)
(0.0524143 0.0131073 0)
(0.039338 0.0111175 0)
(0.0276952 0.00911095 0)
(0.0177747 0.00724952 0)
(0.00968314 0.00543535 0)
(0.00372667 0.00334382 0)
(0.000329396 0.000918789 0)
(0.000785681 -0.00449644 0)
(0.00568777 -0.00969683 0)
(0.0117167 -0.010918 0)
(0.0169049 -0.00900562 0)
(0.0197615 -0.00542328 0)
(0.0197094 -0.00146863 0)
(0.0166662 0.00215409 0)
(0.0106298 0.00542504 0)
(0.0013747 0.00878347 0)
(-0.0116311 0.0127958 0)
(-0.0291005 0.0178481 0)
(-0.0516613 0.0240173 0)
(-0.0796189 0.031092 0)
(-0.112743 0.0386084 0)
(-0.150161 0.045886 0)
(-0.190395 0.052106 0)
(-0.231556 0.0564449 0)
(-0.271611 0.0582164 0)
(-0.308634 0.0569743 0)
(-0.340999 0.0525526 0)
(-0.36747 0.0450508 0)
(-0.387201 0.0347844 0)
(-0.399681 0.022226 0)
(-0.404648 0.00795569 0)
(-0.402028 -0.0073763 0)
(-0.391798 -0.0230871 0)
(-0.373994 -0.038466 0)
(-0.348884 -0.0527259 0)
(-0.316956 -0.0650309 0)
(-0.278975 -0.0745408 0)
(-0.236034 -0.0804823 0)
(-0.189566 -0.0822471 0)
(-0.141332 -0.0795039 0)
(-0.0933361 -0.0723069 0)
(-0.0476912 -0.0612037 0)
(-0.00639084 -0.0472003 0)
(0.0288417 -0.0315877 0)
(0.0566476 -0.0158135 0)
(0.0763346 -0.00116787 0)
(0.0876298 0.0111526 0)
(0.090795 0.0202399 0)
(0.0870834 0.02573 0)
(0.0782001 0.0278548 0)
(0.0660349 0.0273036 0)
(0.0523881 0.0249751 0)
(0.0387211 0.0217248 0)
(0.0260343 0.0181229 0)
(0.0149684 0.0142402 0)
(0.00625674 0.00958405 0)
(0.000705292 0.00358729 0)
(0.000917663 -0.00772778 0)
(0.00606779 -0.0155937 0)
(0.0115447 -0.016538 0)
(0.0151612 -0.0124507 0)
(0.0154138 -0.00573166 0)
(0.0117438 0.00170236 0)
(0.00392662 0.00894606 0)
(-0.00838676 0.0161082 0)
(-0.0258617 0.0239517 0)
(-0.0493138 0.0332276 0)
(-0.0793803 0.0442156 0)
(-0.116158 0.0565747 0)
(-0.15898 0.0694286 0)
(-0.206391 0.0815546 0)
(-0.256352 0.0916235 0)
(-0.30658 0.0984496 0)
(-0.3549 0.101185 0)
(-0.399505 0.0994092 0)
(-0.439061 0.0931074 0)
(-0.472691 0.0825815 0)
(-0.499874 0.0683332 0)
(-0.520309 0.0509598 0)
(-0.533801 0.0310892 0)
(-0.540189 0.00935821 0)
(-0.539315 -0.0135695 0)
(-0.530993 -0.036965 0)
(-0.515092 -0.0599844 0)
(-0.491586 -0.0816617 0)
(-0.460585 -0.100927 0)
(-0.422406 -0.11664 0)
(-0.377669 -0.127669 0)
(-0.327385 -0.133011 0)
(-0.273029 -0.13197 0)
(-0.216538 -0.12434 0)
(-0.160223 -0.110556 0)
(-0.106567 -0.0917281 0)
(-0.0579184 -0.0695559 0)
(-0.0161491 -0.0460421 0)
(0.0175472 -0.0231017 0)
(0.0425802 -0.00247775 0)
(0.0588879 0.0145929 0)
(0.0667294 0.0271863 0)
(0.0672162 0.0349273 0)
(0.0619033 0.0381573 0)
(0.0525804 0.0377801 0)
(0.041039 0.0349311 0)
(0.0288302 0.0305678 0)
(0.0171892 0.0250324 0)
(0.00742114 0.017741 0)
(0.000862121 0.00736654 0)
(0.000999721 -0.0110187 0)
(0.00561001 -0.020828 0)
(0.00922663 -0.0203473 0)
(0.00967377 -0.0128994 0)
(0.00561328 -0.00193195 0)
(-0.00347363 0.010132 0)
(-0.0180518 0.0223923 0)
(-0.038877 0.0352926 0)
(-0.066883 0.0497728 0)
(-0.102722 0.0663585 0)
(-0.146291 0.0846767 0)
(-0.196514 0.103496 0)
(-0.251453 0.121086 0)
(-0.308658 0.135652 0)
(-0.365624 0.145708 0)
(-0.420173 0.150305 0)
(-0.470659 0.149074 0)
(-0.515998 0.142142 0)
(-0.555562 0.129962 0)
(-0.589025 0.113157 0)
(-0.616232 0.0923977 0)
(-0.637095 0.0683418 0)
(-0.65155 0.0416262 0)
(-0.659522 0.0128817 0)
(-0.660906 -0.0172399 0)
(-0.655566 -0.0480159 0)
(-0.643287 -0.0785872 0)
(-0.623799 -0.107937 0)
(-0.59681 -0.134886 0)
(-0.562081 -0.158085 0)
(-0.519565 -0.176059 0)
(-0.469559 -0.187336 0)
(-0.412872 -0.19066 0)
(-0.35098 -0.185263 0)
(-0.286085 -0.171126 0)
(-0.221026 -0.149177 0)
(-0.15897 -0.121306 0)
(-0.102919 -0.090118 0)
(-0.0551604 -0.0584665 0)
(-0.0168839 -0.0288694 0)
(0.0117842 -0.00310268 0)
(0.0312243 0.0176313 0)
(0.0419895 0.0326625 0)
(0.0452838 0.0418365 0)
(0.0426265 0.0456915 0)
(0.0357439 0.0452957 0)
(0.026399 0.0417584 0)
(0.0162503 0.0356001 0)
(0.00710961 0.0261581 0)
(0.000796481 0.0113836 0)
(0.000995652 -0.0139232 0)
(0.00416049 -0.0242936 0)
(0.00457771 -0.0208756 0)
(0.000390073 -0.0087216 0)
(-0.00947531 0.00766637 0)
(-0.025581 0.0256068 0)
(-0.0486704 0.0444984 0)
(-0.0797237 0.0650145 0)
(-0.119455 0.0878113 0)
(-0.16768 0.112575 0)
(-0.223053 0.13785 0)
(-0.283272 0.161482 0)
(-0.345568 0.181252 0)
(-0.407248 0.195381 0)
(-0.466092 0.202801 0)
(-0.520515 0.203164 0)
(-0.569545 0.196697 0)
(-0.612673 0.183977 0)
(-0.649705 0.16575 0)
(-0.680646 0.142798 0)
(-0.705618 0.115874 0)
(-0.724819 0.085677 0)
(-0.738476 0.0528623 0)
(-0.746783 0.0180373 0)
(-0.74984 -0.0182155 0)
(-0.74765 -0.0552796 0)
(-0.740023 -0.0924377 0)
(-0.726522 -0.128811 0)
(-0.706522 -0.163302 0)
(-0.679257 -0.194525 0)
(-0.643939 -0.220803 0)
(-0.599922 -0.240263 0)
(-0.546955 -0.251028 0)
(-0.485486 -0.251497 0)
(-0.416931 -0.240741 0)
(-0.343828 -0.218914 0)
(-0.269747 -0.18753 0)
(-0.198877 -0.149446 0)
(-0.135269 -0.108429 0)
(-0.0819293 -0.0683588 0)
(-0.0401474 -0.0323554 0)
(-0.00954876 -0.0022838 0)
(0.0110339 0.0211238 0)
(0.0227914 0.0375864 0)
(0.0271517 0.0473195 0)
(0.0257786 0.0511049 0)
(0.0204624 0.0499364 0)
(0.0130766 0.0443189 0)
(0.00574865 0.0334775 0)
(0.000590969 0.0148944 0)
(0.000839715 -0.0158639 0)
(0.00148213 -0.0247673 0)
(-0.00259981 -0.0166893 0)
(-0.0126931 0.0014574 0)
(-0.0295821 0.0244142 0)
(-0.0539415 0.0495842 0)
(-0.0866709 0.0766589 0)
(-0.128529 0.106102 0)
(-0.17939 0.137665 0)
(-0.237825 0.1698 0)
(-0.301306 0.200028 0)
(-0.3668 0.225714 0)
(-0.431394 0.244744 0)
(-0.492722 0.255857 0)
(-0.54913 0.258659 0)
(-0.599622 0.253435 0)
(-0.643721 0.240887 0)
(-0.681329 0.221927 0)
(-0.712627 0.197531 0)
(-0.738003 0.168644 0)
(-0.757981 0.13613 0)
(-0.773158 0.10075 0)
(-0.784109 0.0631368 0)
(-0.791309 0.0238025 0)
(-0.795082 -0.0168121 0)
(-0.795587 -0.0582879 0)
(-0.792733 -0.100187 0)
(-0.786062 -0.141929 0)
(-0.774826 -0.182677 0)
(-0.757953 -0.221234 0)
(-0.734089 -0.255994 0)
(-0.701719 -0.284937 0)
(-0.659426 -0.305708 0)
(-0.60625 -0.315856 0)
(-0.54212 -0.313264 0)
(-0.468297 -0.296716 0)
(-0.387678 -0.266471 0)
(-0.304759 -0.224668 0)
(-0.225075 -0.175321 0)
(-0.154095 -0.123666 0)
(-0.0958204 -0.0748963 0)
(-0.0517132 -0.0328066 0)
(-0.0207604 0.000848841 0)
(-0.000753974 0.0259329 0)
(0.0103018 0.0427778 0)
(0.0143095 0.0520054 0)
(0.0132048 0.0544124 0)
(0.00901158 0.0503518 0)
(0.0040001 0.0389262 0)
(0.000362194 0.0174922 0)
(0.000464821 -0.0160958 0)
(-0.00257553 -0.020969 0)
(-0.0122894 -0.00661069 0)
(-0.0292407 0.0186678 0)
(-0.0539599 0.0492831 0)
(-0.0871985 0.0828911 0)
(-0.129681 0.119139 0)
(-0.181413 0.15768 0)
(-0.241072 0.196961 0)
(-0.306069 0.23427 0)
(-0.373168 0.266561 0)
(-0.4392 0.291293 0)
(-0.501561 0.306904 0)
(-0.558408 0.312861 0)
(-0.608628 0.309452 0)
(-0.651714 0.297512 0)
(-0.687642 0.278168 0)
(-0.716771 0.252665 0)
(-0.739753 0.222234 0)
(-0.757431 0.188 0)
(-0.770731 0.150918 0)
(-0.78056 0.111737 0)
(-0.787712 0.070986 0)
(-0.79282 0.0290247 0)
(-0.796353 -0.0138945 0)
(-0.798579 -0.0576023 0)
(-0.799524 -0.101975 0)
(-0.798882 -0.146776 0)
(-0.796038 -0.191541 0)
(-0.78995 -0.235479 0)
(-0.779109 -0.277354 0)
(-0.761561 -0.315346 0)
(-0.735046 -0.347006 0)
(-0.697274 -0.369367 0)
(-0.646397 -0.379265 0)
(-0.581661 -0.373875 0)
(-0.504084 -0.351483 0)
(-0.416949 -0.312327 0)
(-0.325829 -0.259239 0)
(-0.237877 -0.197648 0)
(-0.160289 -0.134633 0)
(-0.0982503 -0.0770333 0)
(-0.0533239 -0.0293987 0)
(-0.0235866 0.00685127 0)
(-0.00556613 0.0324349 0)
(0.00361056 0.0482834 0)
(0.00645576 0.0552411 0)
(0.00528796 0.0535832 0)
(0.00248699 0.042374 0)
(0.000209221 0.0191562 0)
(-0.000172197 -0.0137846 0)
(-0.00796776 -0.0118249 0)
(-0.0241257 0.01021 0)
(-0.0484439 0.043515 0)
(-0.0812404 0.0826518 0)
(-0.123151 0.125403 0)
(-0.174313 0.170838 0)
(-0.233654 0.217359 0)
(-0.298707 0.262115 0)
(-0.366138 0.301653 0)
(-0.432525 0.332912 0)
(-0.494962 0.353881 0)
(-0.551336 0.363754 0)
(-0.600344 0.362755 0)
(-0.641409 0.35183 0)
(-0.67456 0.332354 0)
(-0.700329 0.3059 0)
(-0.719621 0.274059 0)
(-0.733564 0.238283 0)
(-0.743356 0.199788 0)
(-0.750134 0.159499 0)
(-0.754886 0.118042 0)
(-0.758406 0.0757812 0)
(-0.7613 0.0328963 0)
(-0.764025 -0.010563 0)
(-0.766874 -0.0546468 0)
(-0.769968 -0.099454 0)
(-0.773235 -0.145029 0)
(-0.776362 -0.19129 0)
(-0.77866 -0.237937 0)
(-0.778947 -0.284279 0)
(-0.775442 -0.329039 0)
(-0.765699 -0.370182 0)
(-0.746692 -0.404832 0)
(-0.715164 -0.429323 0)
(-0.668265 -0.439549 0)
(-0.604424 -0.431707 0)
(-0.524315 -0.403379 0)
(-0.431618 -0.354726 0)
(-0.333157 -0.289399 0)
(-0.23798 -0.214601 0)
(-0.15523 -0.139743 0)
(-0.0912577 -0.0736489 0)
(-0.0474099 -0.0215546 0)
(-0.0204349 0.0157888 0)
(-0.00547619 0.0401026 0)
(0.00120228 0.0527705 0)
(0.00267259 0.0543814 0)
(0.00160544 0.0441983 0)
(0.000183928 0.0201669 0)
(-0.00107295 -0.00816252 0)
(-0.0144184 0.00341376 0)
(-0.0373715 0.0341519 0)
(-0.0690484 0.0760557 0)
(-0.109505 0.124144 0)
(-0.158994 0.175957 0)
(-0.216773 0.229522 0)
(-0.280681 0.281878 0)
(-0.347447 0.329213 0)
(-0.413456 0.36786 0)
(-0.47548 0.395187 0)
(-0.531077 0.409949 0)
(-0.5787 0.41218 0)
(-0.61765 0.40288 0)
(-0.647984 0.383675 0)
(-0.670389 0.356508 0)
(-0.686012 0.32338 0)
(-0.696249 0.28613 0)
(-0.702532 0.246275 0)
(-0.706166 0.204947 0)
(-0.708228 0.162889 0)
(-0.709539 0.120508 0)
(-0.710687 0.0779736 0)
(-0.712081 0.035288 0)
(-0.714022 -0.00765553 0)
(-0.716756 -0.0510216 0)
(-0.720427 -0.0949979 0)
(-0.725152 -0.13978 0)
(-0.730941 -0.185545 0)
(-0.737601 -0.232376 0)
(-0.744592 -0.280131 0)
(-0.750807 -0.32826 0)
(-0.754343 -0.375559 0)
(-0.752355 -0.419868 0)
(-0.74111 -0.457832 0)
(-0.716354 -0.484919 0)
(-0.674089 -0.495863 0)
(-0.611772 -0.485633 0)
(-0.529689 -0.450888 0)
(-0.432041 -0.391685 0)
(-0.327152 -0.312816 0)
(-0.226237 -0.22387 0)
(-0.140488 -0.137205 0)
(-0.0771249 -0.0638429 0)
(-0.0365976 -0.00932746 0)
(-0.0137857 0.0267912 0)
(-0.00262925 0.047139 0)
(0.00130205 0.0532437 0)
(0.00144642 0.0450151 0)
(0.000288216 0.0209443 0)
(-0.00218009 0.00131752 0)
(-0.0214289 0.0250347 0)
(-0.0510249 0.0650764 0)
(-0.0895044 0.115758 0)
(-0.136553 0.172626 0)
(-0.191813 0.232571 0)
(-0.253587 0.292339 0)
(-0.318867 0.347805 0)
(-0.383985 0.394665 0)
(-0.445422 0.4295 0)
(-0.500374 0.450402 0)
(-0.546984 0.45703 0)
(-0.584371 0.450322 0)
(-0.612562 0.432106 0)
(-0.632358 0.404708 0)
(-0.645119 0.37059 0)
(-0.652497 0.332032 0)
(-0.656152 0.290906 0)
(-0.657534 0.248571 0)
(-0.657772 0.205885 0)
(-0.657651 0.16329 0)
(-0.657664 0.120938 0)
(-0.658091 0.078803 0)
(-0.65907 0.0367589 0)
(-0.660707 -0.0053686 0)
(-0.663148 -0.0477526 0)
(-0.666501 -0.0905659 0)
(-0.670946 -0.134009 0)
(-0.6767 -0.178321 0)
(-0.683966 -0.223756 0)
(-0.692815 -0.270545 0)
(-0.702979 -0.318783 0)
(-0.713567 -0.368191 0)
(-0.72274 -0.417724 0)
(-0.727412 -0.465124 0)
(-0.723171 -0.506542 0)
(-0.704672 -0.536448 0)
(-0.666655 -0.548116 0)
(-0.605545 -0.534929 0)
(-0.521286 -0.49246 0)
(-0.418831 -0.420876 0)
(-0.308405 -0.326735 0)
(-0.203737 -0.222911 0)
(-0.117982 -0.125423 0)
(-0.0584621 -0.0473964 0)
(-0.0236491 0.0062269 0)
(-0.00619238 0.037749 0)
(0.000677885 0.0503822 0)
(0.00180939 0.0453502 0)
(0.000485805 0.0218717 0)
(-0.00335827 0.0148887 0)
(-0.0283524 0.0528361 0)
(-0.0639665 0.102358 0)
(-0.108203 0.161536 0)
(-0.160269 0.226376 0)
(-0.21909 0.292817 0)
(-0.282143 0.356349 0)
(-0.345914 0.412047 0)
(-0.406699 0.455577 0)
(-0.461332 0.48412 0)
(-0.507586 0.496691 0)
(-0.544307 0.493963 0)
(-0.571399 0.477849 0)
(-0.589692 0.451027 0)
(-0.600707 0.416451 0)
(-0.606322 0.376911 0)
(-0.608418 0.334702 0)
(-0.608599 0.291465 0)
(-0.608051 0.248189 0)
(-0.607521 0.205341 0)
(-0.607397 0.163031 0)
(-0.607821 0.121174 0)
(-0.608792 0.0796102 0)
(-0.610241 0.0381566 0)
(-0.612124 -0.00334912 0)
(-0.614493 -0.045031 0)
(-0.617398 -0.0869945 0)
(-0.62098 -0.129352 0)
(-0.62549 -0.172258 0)
(-0.63127 -0.215942 0)
(-0.638716 -0.260743 0)
(-0.648174 -0.307082 0)
(-0.659737 -0.35534 0)
(-0.672883 -0.405564 0)
(-0.685969 -0.456985 0)
(-0.695741 -0.507343 0)
(-0.697134 -0.55222 0)
(-0.683667 -0.5848 0)
(-0.64871 -0.596513 0)
(-0.587608 -0.578849 0)
(-0.500188 -0.526264 0)
(-0.392667 -0.439516 0)
(-0.277788 -0.328028 0)
(-0.172113 -0.209279 0)
(-0.0902978 -0.103582 0)
(-0.0383261 -0.0252877 0)
(-0.0113405 0.0228957 0)
(-0.000156486 0.0453573 0)
(0.0022963 0.0453478 0)
(0.000720588 0.0231539 0)
(-0.00444357 0.0323985 0)
(-0.0345364 0.0861532 0)
(-0.0751392 0.14494 0)
(-0.123718 0.211886 0)
(-0.178937 0.283358 0)
(-0.239041 0.354222 0)
(-0.300926 0.418922 0)
(-0.360899 0.472152 0)
(-0.415497 0.509939 0)
(-0.462082 0.530322 0)
(-0.499126 0.533395 0)
(-0.526277 0.520937 0)
(-0.544272 0.495867 0)
(-0.554693 0.461624 0)
(-0.559587 0.421575 0)
(-0.561043 0.378541 0)
(-0.560834 0.334532 0)
(-0.560227 0.290732 0)
(-0.559961 0.247646 0)
(-0.560342 0.205341 0)
(-0.561402 0.163654 0)
(-0.563028 0.122356 0)
(-0.565062 0.0812296 0)
(-0.567348 0.0401091 0)
(-0.569784 -0.00111893 0)
(-0.572371 -0.0425176 0)
(-0.575127 -0.0841192 0)
(-0.578113 -0.125941 0)
(-0.581492 -0.168022 0)
(-0.585528 -0.210472 0)
(-0.590621 -0.253517 0)
(-0.597311 -0.29756 0)
(-0.606219 -0.343193 0)
(-0.617822 -0.391123 0)
(-0.632013 -0.441838 0)
(-0.647447 -0.494936 0)
(-0.660799 -0.548132 0)
(-0.666315 -0.596277 0)
(-0.656227 -0.630927 0)
(-0.622437 -0.641181 0)
(-0.559367 -0.616278 0)
(-0.467223 -0.549773 0)
(-0.354299 -0.444111 0)
(-0.236668 -0.313372 0)
(-0.133892 -0.18127 0)
(-0.0609092 -0.072437 0)
(-0.0200597 -0.000213874 0)
(-0.00227077 0.0369325 0)
(0.00246878 0.0446226 0)
(0.00093993 0.0247514 0)
(-0.00528767 0.0532848 0)
(-0.0394201 0.123927 0)
(-0.0836853 0.191449 0)
(-0.134982 0.265071 0)
(-0.191436 0.341493 0)
(-0.250746 0.414558 0)
(-0.309496 0.477973 0)
(-0.36409 0.526444 0)
(-0.411499 0.556671 0)
(-0.449734 0.567749 0)
(-0.478045 0.56097 0)
(-0.49691 0.53926 0)
(-0.507824 0.506461 0)
(-0.512915 0.466555 0)
(-0.514444 0.423004 0)
(-0.514368 0.378328 0)
(-0.514075 0.334011 0)
(-0.514337 0.290665 0)
(-0.515423 0.248332 0)
(-0.517283 0.206769 0)
(-0.519726 0.165664 0)
(-0.522536 0.124748 0)
(-0.525527 0.0838306 0)
(-0.528563 0.0427962 0)
(-0.531555 0.00158583 0)
(-0.534505 -0.0398165 0)
(-0.537432 -0.0813969 0)
(-0.54033 -0.123126 0)
(-0.543256 -0.16497 0)
(-0.54632 -0.20692 0)
(-0.549747 -0.249031 0)
(-0.553932 -0.291497 0)
(-0.559499 -0.334761 0)
(-0.567279 -0.379602 0)
(-0.578123 -0.427082 0)
(-0.592405 -0.478178 0)
(-0.609126 -0.532903 0)
(-0.62484 -0.588922 0)
(-0.632971 -0.640044 0)
(-0.6243 -0.675581 0)
(-0.589222 -0.68166 0)
(-0.521578 -0.6451 0)
(-0.422848 -0.559339 0)
(-0.30465 -0.430461 0)
(-0.187286 -0.279817 0)
(-0.0928388 -0.138957 0)
(-0.0339641 -0.0351967 0)
(-0.00650535 0.0231623 0)
(0.00201123 0.0423047 0)
(0.00111636 0.0264141 0)
(-0.00576931 0.076642 0)
(-0.0425913 0.164825 0)
(-0.0890315 0.240339 0)
(-0.141381 0.319321 0)
(-0.197287 0.398884 0)
(-0.254087 0.472027 0)
(-0.308305 0.532058 0)
(-0.356644 0.574028 0)
(-0.396632 0.595551 0)
(-0.426995 0.596929 0)
(-0.447773 0.580706 0)
(-0.460192 0.550901 0)
(-0.466311 0.512072 0)
(-0.468496 0.468426 0)
(-0.468893 0.423169 0)
(-0.469062 0.378261 0)
(-0.469869 0.334537 0)
(-0.471595 0.292069 0)
(-0.474149 0.250549 0)
(-0.477283 0.209578 0)
(-0.480736 0.168821 0)
(-0.48431 0.128054 0)
(-0.487882 0.0871528 0)
(-0.491375 0.0460612 0)
(-0.494753 0.00476045 0)
(-0.498047 -0.0367419 0)
(-0.501286 -0.0784207 0)
(-0.504439 -0.120247 0)
(-0.507496 -0.162169 0)
(-0.510453 -0.204122 0)
(-0.513351 -0.246045 0)
(-0.516328 -0.28793 0)
(-0.519722 -0.329933 0)
(-0.524179 -0.37252 0)
(-0.530715 -0.416635 0)
(-0.540551 -0.46373 0)
(-0.554526 -0.515355 0)
(-0.571956 -0.571975 0)
(-0.589162 -0.630967 0)
(-0.598467 -0.684512 0)
(-0.588912 -0.718827 0)
(-0.549465 -0.716366 0)
(-0.474179 -0.661691 0)
(-0.367281 -0.549883 0)
(-0.245301 -0.393998 0)
(-0.133334 -0.226067 0)
(-0.0540395 -0.0858365 0)
(-0.0133517 0.00162968 0)
(0.000771969 0.0372136 0)
(0.00125371 0.0277831 0)
(-0.00581297 0.101336 0)
(-0.0438179 0.207367 0)
(-0.0909143 0.290033 0)
(-0.142745 0.372985 0)
(-0.196584 0.453949 0)
(-0.249595 0.52533 0)
(-0.298442 0.580356 0)
(-0.340264 0.614694 0)
(-0.373208 0.627047 0)
(-0.396719 0.619004 0)
(-0.411547 0.59434 0)
(-0.419488 0.557993 0)
(-0.42289 0.514943 0)
(-0.424052 0.469272 0)
(-0.424751 0.423647 0)
(-0.426023 0.379326 0)
(-0.428233 0.336521 0)
(-0.431293 0.294896 0)
(-0.434923 0.253957 0)
(-0.438827 0.213289 0)
(-0.442788 0.172623 0)
(-0.44669 0.131823 0)
(-0.450491 0.0908348 0)
(-0.45418 0.0496459 0)
(-0.457762 0.00825806 0)
(-0.461298 -0.0333187 0)
(-0.464828 -0.0750696 0)
(-0.468325 -0.116987 0)
(-0.47176 -0.159037 0)
(-0.475085 -0.20116 0)
(-0.478239 -0.243266 0)
(-0.481173 -0.28525 0)
(-0.483926 -0.32704 0)
(-0.486757 -0.368725 0)
(-0.490313 -0.410782 0)
(-0.495761 -0.454351 0)
(-0.504682 -0.501348 0)
(-0.518387 -0.553966 0)
(-0.536402 -0.613048 0)
(-0.554475 -0.675262 0)
(-0.563344 -0.730182 0)
(-0.550038 -0.759669 0)
(-0.502524 -0.741868 0)
(-0.416483 -0.660232 0)
(-0.301026 -0.514993 0)
(-0.1793 -0.331196 0)
(-0.0805098 -0.15485 0)
(-0.0231574 -0.0304646 0)
(-0.00128245 0.0280179 0)
(0.00137143 0.0284814 0)
(-0.00539548 0.126125 0)
(-0.0430438 0.250044 0)
(-0.0893531 0.339042 0)
(-0.139286 0.42464 0)
(-0.189857 0.505481 0)
(-0.23823 0.573658 0)
(-0.281355 0.622592 0)
(-0.316876 0.648767 0)
(-0.343563 0.652083 0)
(-0.361512 0.635423 0)
(-0.372031 0.60367 0)
(-0.37725 0.562432 0)
(-0.379526 0.51678 0)
(-0.380855 0.47037 0)
(-0.382522 0.425165 0)
(-0.385058 0.381722 0)
(-0.388446 0.33976 0)
(-0.392405 0.298704 0)
(-0.396611 0.258031 0)
(-0.400825 0.2174 0)
(-0.404924 0.176648 0)
(-0.408879 0.135723 0)
(-0.412713 0.094622 0)
(-0.416456 0.0533565 0)
(-0.420134 0.0119296 0)
(-0.423817 -0.0296587 0)
(-0.427558 -0.0714083 0)
(-0.431339 -0.113335 0)
(-0.435139 -0.155433 0)
(-0.438915 -0.197678 0)
(-0.442585 -0.240008 0)
(-0.446034 -0.282315 0)
(-0.449138 -0.324444 0)
(-0.45184 -0.36625 0)
(-0.45431 -0.407756 0)
(-0.457188 -0.449461 0)
(-0.461817 -0.492755 0)
(-0.470168 -0.540135 0)
(-0.483969 -0.59455 0)
(-0.502702 -0.657027 0)
(-0.520992 -0.722612 0)
(-0.527333 -0.776662 0)
(-0.506582 -0.795165 0)
(-0.446777 -0.751986 0)
(-0.347647 -0.632474 0)
(-0.225938 -0.448134 0)
(-0.112324 -0.242543 0)
(-0.0363995 -0.0761168 0)
(-0.00422584 0.0132166 0)
(0.00146092 0.0280994 0)
(-0.00454156 0.149768 0)
(-0.0403618 0.29142 0)
(-0.0845905 0.386044 0)
(-0.131485 0.473142 0)
(-0.177919 0.552647 0)
(-0.221185 0.616625 0)
(-0.258611 0.658906 0)
(-0.288364 0.676922 0)
(-0.309787 0.671805 0)
(-0.323498 0.647659 0)
(-0.331167 0.61028 0)
(-0.335017 0.565656 0)
(-0.33719 0.518655 0)
(-0.339254 0.472308 0)
(-0.342002 0.427837 0)
(-0.345572 0.385209 0)
(-0.349729 0.343818 0)
(-0.354138 0.303014 0)
(-0.358534 0.262344 0)
(-0.362776 0.221583 0)
(-0.36683 0.180665 0)
(-0.370732 0.139599 0)
(-0.374542 0.0984098 0)
(-0.378304 0.0571096 0)
(-0.382043 0.0156931 0)
(-0.385826 -0.0258533 0)
(-0.389713 -0.0675414 0)
(-0.393693 -0.109405 0)
(-0.397754 -0.15146 0)
(-0.401872 -0.193716 0)
(-0.405991 -0.236155 0)
(-0.410011 -0.278717 0)
(-0.413776 -0.321273 0)
(-0.417094 -0.363621 0)
(-0.419819 -0.405536 0)
(-0.422047 -0.446971 0)
(-0.424444 -0.488489 0)
(-0.42858 -0.531865 0)
(-0.43686 -0.580402 0)
(-0.451348 -0.637867 0)
(-0.471017 -0.704904 0)
(-0.488461 -0.773323 0)
(-0.489155 -0.821908 0)
(-0.456214 -0.819312 0)
(-0.380032 -0.736912 0)
(-0.267927 -0.568383 0)
(-0.146913 -0.345965 0)
(-0.0533939 -0.13754 0)
(-0.00822377 -0.00882293 0)
(0.0014742 0.0261812 0)
(-0.00331385 0.171124 0)
(-0.035974 0.330199 0)
(-0.0770192 0.429929 0)
(-0.119989 0.517632 0)
(-0.16171 0.594942 0)
(-0.199701 0.654173 0)
(-0.231709 0.689715 0)
(-0.256394 0.700006 0)
(-0.273576 0.687377 0)
(-0.284238 0.657011 0)
(-0.290206 0.615386 0)
(-0.293588 0.568598 0)
(-0.296184 0.521088 0)
(-0.299107 0.475189 0)
(-0.302747 0.43145 0)
(-0.306993 0.389402 0)
(-0.311529 0.348283 0)
(-0.316066 0.307477 0)
(-0.320432 0.266651 0)
(-0.32458 0.225691 0)
(-0.328543 0.184603 0)
(-0.332388 0.143428 0)
(-0.336186 0.102191 0)
(-0.33998 0.0608978 0)
(-0.343784 0.0195284 0)
(-0.347654 -0.021943 0)
(-0.351656 -0.0635359 0)
(-0.355783 -0.105296 0)
(-0.36002 -0.147252 0)
(-0.364363 -0.189436 0)
(-0.368784 -0.231863 0)
(-0.37322 -0.274526 0)
(-0.377556 -0.317364 0)
(-0.381604 -0.360227 0)
(-0.385113 -0.402853 0)
(-0.38786 -0.444928 0)
(-0.389893 -0.486353 0)
(-0.391966 -0.527859 0)
(-0.395993 -0.57185 0)
(-0.404887 -0.62273 0)
(-0.420803 -0.685021 0)
(-0.441341 -0.757721 0)
(-0.455826 -0.826562 0)
(-0.446237 -0.860724 0)
(-0.395621 -0.821383 0)
(-0.300712 -0.683102 0)
(-0.180733 -0.459446 0)
(-0.0735917 -0.21509 0)
(-0.0135223 -0.0398853 0)
(0.0013897 0.022246 0)
(-0.00180132 0.189213 0)
(-0.0301519 0.365264 0)
(-0.0671127 0.469815 0)
(-0.105508 0.557512 0)
(-0.142189 0.632129 0)
(-0.174949 0.686469 0)
(-0.201961 0.715577 0)
(-0.222319 0.718891 0)
(-0.236195 0.699838 0)
(-0.244767 0.664506 0)
(-0.249837 0.619816 0)
(-0.253261 0.571751 0)
(-0.256443 0.524214 0)
(-0.260099 0.478855 0)
(-0.264335 0.435681 0)
(-0.26892 0.393947 0)
(-0.273555 0.352858 0)
(-0.278034 0.311897 0)
(-0.282279 0.27085 0)
(-0.286311 0.229693 0)
(-0.290195 0.188473 0)
(-0.294009 0.147232 0)
(-0.297821 0.105991 0)
(-0.301665 0.064738 0)
(-0.305545 0.0234414 0)
(-0.309501 -0.0179352 0)
(-0.313607 -0.0594152 0)
(-0.317862 -0.101054 0)
(-0.322242 -0.142887 0)
(-0.326749 -0.184956 0)
(-0.331371 -0.227297 0)
(-0.336077 -0.269939 0)
(-0.340802 -0.312881 0)
(-0.345415 -0.356059 0)
(-0.349697 -0.399288 0)
(-0.353341 -0.442231 0)
(-0.356058 -0.484473 0)
(-0.357901 -0.525911 0)
(-0.359832 -0.567642 0)
(-0.364272 -0.613122 0)
(-0.374667 -0.668229 0)
(-0.392703 -0.737634 0)
(-0.413189 -0.816001 0)
(-0.420755 -0.878647 0)
(-0.394525 -0.882449 0)
(-0.321404 -0.784788 0)
(-0.210219 -0.575924 0)
(-0.0953966 -0.306726 0)
(-0.0203463 -0.0816462 0)
(0.00124967 0.0158104 0)
(-0.000108146 0.203257 0)
(-0.023202 0.395692 0)
(-0.055369 0.505027 0)
(-0.0887414 0.592405 0)
(-0.120239 0.66416 0)
(-0.147947 0.713811 0)
(-0.170439 0.737091 0)
(-0.187159 0.73437 0)
(-0.198503 0.710034 0)
(-0.205691 0.670874 0)
(-0.21036 0.624052 0)
(-0.214041 0.575296 0)
(-0.21776 0.527944 0)
(-0.221921 0.48305 0)
(-0.226464 0.440226 0)
(-0.231135 0.398584 0)
(-0.235698 0.357373 0)
(-0.240034 0.316189 0)
(-0.244136 0.274923 0)
(-0.248062 0.233606 0)
(-0.251891 0.192299 0)
(-0.255692 0.151038 0)
(-0.259528 0.109826 0)
(-0.263427 0.0686403 0)
(-0.267383 0.0274374 0)
(-0.271422 -0.013828 0)
(-0.275631 -0.0551807 0)
(-0.280015 -0.0966856 0)
(-0.284534 -0.138383 0)
(-0.289194 -0.18032 0)
(-0.293986 -0.222542 0)
(-0.298896 -0.265097 0)
(-0.30389 -0.308022 0)
(-0.308893 -0.351322 0)
(-0.313757 -0.394917 0)
(-0.318226 -0.438569 0)
(-0.321933 -0.481832 0)
(-0.32455 -0.524186 0)
(-0.326215 -0.565649 0)
(-0.328288 -0.608081 0)
(-0.333914 -0.656619 0)
(-0.346907 -0.718798 0)
(-0.367256 -0.797544 0)
(-0.384888 -0.878182 0)
(-0.379006 -0.920099 0)
(-0.329072 -0.868324 0)
(-0.232619 -0.688387 0)
(-0.116653 -0.408457 0)
(-0.0286956 -0.135254 0)
(0.00111647 0.00636285 0)
(0.00165599 0.212699 0)
(-0.0154407 0.420751 0)
(-0.0422704 0.535074 0)
(-0.0703342 0.622104 0)
(-0.0966341 0.691114 0)
(-0.119531 0.73655 0)
(-0.137959 0.754818 0)
(-0.151626 0.747108 0)
(-0.161031 0.718594 0)
(-0.167307 0.676583 0)
(-0.171837 0.628323 0)
(-0.175804 0.579222 0)
(-0.179906 0.532093 0)
(-0.184334 0.487521 0)
(-0.188955 0.444851 0)
(-0.193543 0.403148 0)
(-0.19794 0.361739 0)
(-0.2021 0.320327 0)
(-0.20606 0.278875 0)
(-0.209893 0.237445 0)
(-0.213674 0.196097 0)
(-0.217464 0.15485 0)
(-0.221316 0.113696 0)
(-0.225261 0.0726002 0)
(-0.229285 0.031512 0)
(-0.233396 -0.00962269 0)
(-0.237704 -0.0508288 0)
(-0.242222 -0.0921837 0)
(-0.246893 -0.133732 0)
(-0.25172 -0.175523 0)
(-0.256694 -0.21761 0)
(-0.261805 -0.260046 0)
(-0.267032 -0.30289 0)
(-0.272336 -0.346189 0)
(-0.277628 -0.389945 0)
(-0.282734 -0.434043 0)
(-0.287346 -0.47815 0)
(-0.29104 -0.521675 0)
(-0.293487 -0.564031 0)
(-0.295068 -0.605634 0)
(-0.297823 -0.649809 0)
(-0.305791 -0.704198 0)
(-0.322424 -0.777286 0)
(-0.343754 -0.86556 0)
(-0.352623 -0.937057 0)
(-0.32452 -0.931323 0)
(-0.246414 -0.790973 0)
(-0.135307 -0.51524 0)
(-0.0381798 -0.200482 0)
(0.000967907 -0.00656558 0)
(0.00338515 0.217228 0)
(-0.00717705 0.439855 0)
(-0.0282653 0.559614 0)
(-0.0508489 0.64652 0)
(-0.0720118 0.713136 0)
(-0.0903491 0.755028 0)
(-0.10511 0.769234 0)
(-0.116182 0.757612 0)
(-0.124064 0.725947 0)
(-0.129711 0.681895 0)
(-0.1342 0.63269 0)
(-0.138381 0.58342 0)
(-0.142689 0.536462 0)
(-0.147181 0.492057 0)
(-0.15171 0.449393 0)
(-0.15611 0.407543 0)
(-0.160293 0.365917 0)
(-0.164264 0.324303 0)
(-0.16808 0.282711 0)
(-0.171819 0.241214 0)
(-0.175545 0.199861 0)
(-0.179309 0.158658 0)
(-0.183159 0.117585 0)
(-0.18713 0.0766018 0)
(-0.191207 0.0356528 0)
(-0.195376 -0.00532455 0)
(-0.199772 -0.0463582 0)
(-0.204432 -0.0875379 0)
(-0.209268 -0.128915 0)
(-0.214283 -0.170544 0)
(-0.219465 -0.212477 0)
(-0.224804 -0.254775 0)
(-0.230284 -0.297503 0)
(-0.235879 -0.340732 0)
(-0.241537 -0.384517 0)
(-0.247147 -0.42884 0)
(-0.252493 -0.473511 0)
(-0.257205 -0.518049 0)
(-0.260809 -0.561688 0)
(-0.263072 -0.603918 0)
(-0.26487 -0.64616 0)
(-0.269295 -0.694358 0)
(-0.28113 -0.759188 0)
(-0.301563 -0.846736 0)
(-0.319327 -0.937724 0)
(-0.309774 -0.973866 0)
(-0.251354 -0.879563 0)
(-0.14988 -0.621943 0)
(-0.0480692 -0.275568 0)
(0.000663825 -0.0234192 0)
(0.00493786 0.216657 0)
(0.00128386 0.452663 0)
(-0.0137532 0.578387 0)
(-0.0307664 0.665641 0)
(-0.0468856 0.730392 0)
(-0.0608896 0.769547 0)
(-0.0722929 0.78071 0)
(-0.0810949 0.766243 0)
(-0.0877184 0.73236 0)
(-0.0928797 0.68693 0)
(-0.0973298 0.637123 0)
(-0.101613 0.587751 0)
(-0.105961 0.540872 0)
(-0.110358 0.496498 0)
(-0.114682 0.453742 0)
(-0.118827 0.411708 0)
(-0.122766 0.369881 0)
(-0.126533 0.328108 0)
(-0.130196 0.286423 0)
(-0.133825 0.244899 0)
(-0.137475 0.203574 0)
(-0.141191 0.162442 0)
(-0.145015 0.121472 0)
(-0.148992 0.0806245 0)
(-0.153106 0.0398448 0)
(-0.157313 -0.000937965 0)
(-0.161785 -0.0417693 0)
(-0.166587 -0.0827384 0)
(-0.1716 -0.123915 0)
(-0.176822 -0.165353 0)
(-0.182242 -0.20711 0)
(-0.187845 -0.249246 0)
(-0.193616 -0.291831 0)
(-0.199535 -0.334948 0)
(-0.205566 -0.378682 0)
(-0.21164 -0.423081 0)
(-0.217607 -0.468076 0)
(-0.223194 -0.513343 0)
(-0.227958 -0.558181 0)
(-0.23142 -0.601681 0)
(-0.233628 -0.643834 0)
(-0.236372 -0.688247 0)
(-0.244092 -0.74498 0)
(-0.261164 -0.826397 0)
(-0.282761 -0.927058 0)
(-0.287488 -0.997876 0)
(-0.248213 -0.951907 0)
(-0.159635 -0.724067 0)
(-0.0575312 -0.357752 0)
(-5.28695e-06 -0.0446233 0)
(0.00615929 0.211215 0)
(0.00957898 0.458734 0)
(0.00094154 0.591304 0)
(-0.0104868 0.679477 0)
(-0.0216618 0.743033 0)
(-0.0315081 0.780336 0)
(-0.0397675 0.789502 0)
(-0.0465014 0.773225 0)
(-0.0520068 0.73797 0)
(-0.0567275 0.691712 0)
(-0.0610885 0.641545 0)
(-0.065359 0.592084 0)
(-0.0696147 0.545183 0)
(-0.0738028 0.500733 0)
(-0.0778407 0.457826 0)
(-0.0816856 0.415606 0)
(-0.0853525 0.373612 0)
(-0.088896 0.331726 0)
(-0.0923832 0.289992 0)
(-0.095876 0.248478 0)
(-0.0994238 0.20721 0)