/*--------------------------------*- C++ -*----------------------------------*\
  =========                 |
  \\      /  F ield         | OpenFOAM: The Open Source CFD Toolbox
   \\    /   O peration     | Website:  https://openfoam.org
    \\  /    A nd           | Version:  7
     \\/     M anipulation  |
\*---------------------------------------------------------------------------*/
FoamFile
{
    version     2.0;
    format      ascii;
    class       volScalarField;
    location    "1700";
    object      p;
}
// * * * * * * * * * * * * * * * * * * * * * * * * * * * * * * * * * * * * * //

dimensions      [0 2 -2 0 0 0 0];

internalField   nonuniform List<scalar> 
2500
(
6.89449e-08
7.0871e-05
-9.0733e-06
-0.000307894
-0.000782295
-0.00136984
-0.00203035
-0.00275929
-0.00358235
-0.0045402
-0.0056729
-0.00701033
-0.00856941
-0.0103499
-0.0123283
-0.0144505
-0.0166244
-0.0187184
-0.0205675
-0.0219899
-0.0228106
-0.0228904
-0.022154
-0.0206178
-0.0184079
-0.0157505
-0.012967
-0.010475
-0.00873608
-0.00818804
-0.00916359
-0.0117992
-0.0159824
-0.0214174
-0.0276446
-0.0341025
-0.0402624
-0.0457236
-0.0502552
-0.0537822
-0.056355
-0.0581083
-0.0592168
-0.0598565
-0.0601792
-0.0603012
-0.0603002
-0.0602189
-0.0600795
-0.0599404
-6.92488e-05
3.55005e-06
-8.02645e-05
-0.000376727
-0.000829124
-0.0013733
-0.00197412
-0.00263302
-0.0033786
-0.00425117
-0.00528954
-0.00652368
-0.00797426
-0.00964904
-0.0115364
-0.0135995
-0.0157675
-0.0179289
-0.019931
-0.0215899
-0.0227133
-0.0231315
-0.0227307
-0.0214866
-0.0194943
-0.016971
-0.0142538
-0.0117781
-0.0100244
-0.00944981
-0.0104025
-0.0130415
-0.0172824
-0.0227755
-0.0290186
-0.0354635
-0.041556
-0.0468553
-0.0511224
-0.0543306
-0.0565977
-0.0581053
-0.059047
-0.0595955
-0.059887
-0.0600186
-0.0600525
-0.0600178
-0.0599163
-0.0597846
-1.92915e-05
4.93997e-05
-5.75198e-05
-0.000379998
-0.000832418
-0.00133902
-0.00186962
-0.00243702
-0.00308227
-0.00385293
-0.0047931
-0.00594314
-0.00734108
-0.00902135
-0.0110039
-0.0132777
-0.0157824
-0.0183964
-0.0209372
-0.0231784
-0.024881
-0.0258309
-0.0258767
-0.0249675
-0.0231955
-0.0207882
-0.0180825
-0.0155123
-0.01357
-0.0127359
-0.0133918
-0.0157355
-0.0197219
-0.025049
-0.0312079
-0.0375771
-0.0435791
-0.0487717
-0.0528746
-0.0558224
-0.0577454
-0.0588894
-0.0595078
-0.0598055
-0.0599269
-0.0599617
-0.0599565
-0.0599209
-0.059825
-0.0596807
0.000227903
0.000265966
0.00010152
-0.000279794
-0.000755606
-0.00123695
-0.00170286
-0.00218545
-0.00274576
-0.00345485
-0.0043861
-0.00561897
-0.00723828
-0.00932104
-0.0119101
-0.0149855
-0.0184439
-0.0220973
-0.0256896
-0.0289305
-0.0315354
-0.0332649
-0.0339543
-0.03354
-0.032094
-0.0298188
-0.0270269
-0.0241395
-0.0216515
-0.0200693
-0.0198304
-0.0212142
-0.0242695
-0.0287829
-0.0343039
-0.0402292
-0.0459367
-0.0509073
-0.054846
-0.057663
-0.0594099
-0.0602982
-0.0606095
-0.0606036
-0.060465
-0.0603034
-0.0601692
-0.0600633
-0.0599333
-0.0597684
0.000707184
0.000677077
0.000417891
-4.4295e-05
-0.000555516
-0.00102943
-0.00146051
-0.00190875
-0.00247482
-0.00328066
-0.00446329
-0.00617054
-0.00854166
-0.0116722
-0.0155766
-0.0201641
-0.0252383
-0.0305183
-0.0356738
-0.0403638
-0.0442737
-0.0471461
-0.0488029
-0.0491596
-0.0482456
-0.0462066
-0.0433079
-0.039935
-0.0365595
-0.0336965
-0.0318386
-0.0313735
-0.0325029
-0.035183
-0.0391135
-0.0437893
-0.0486101
-0.0530152
-0.0566049
-0.0591921
-0.0608107
-0.061617
-0.0618023
-0.0616169
-0.06128
-0.0609347
-0.0606547
-0.0604531
-0.0602768
-0.0600999
0.00146233
0.00132831
0.00094893
0.0003973
-0.000168874
-0.000675407
-0.00114696
-0.00169634
-0.00249281
-0.00374249
-0.00567101
-0.00849244
-0.0123625
-0.0173322
-0.0233218
-0.0301234
-0.0374274
-0.0448626
-0.0520356
-0.0585664
-0.0641175
-0.0684185
-0.0712818
-0.0726082
-0.0723957
-0.0707288
-0.067806
-0.0639476
-0.0595612
-0.0551227
-0.0511351
-0.0480693
-0.0462907
-0.0459855
-0.0471077
-0.0493734
-0.0523199
-0.0554176
-0.0581996
-0.0603563
-0.0617674
-0.0624818
-0.0626635
-0.0624752
-0.0620886
-0.0616628
-0.061297
-0.0610286
-0.0608233
-0.0606518
0.00253181
0.00226901
0.00176022
0.00110869
0.000451736
-0.000167509
-0.000837164
-0.00175287
-0.00318405
-0.00544082
-0.00882512
-0.0135662
-0.0197611
-0.0273431
-0.0360875
-0.045646
-0.0555944
-0.0654795
-0.0748591
-0.0833332
-0.0905666
-0.0963039
-0.100372
-0.10268
-0.103223
-0.102052
-0.0992936
-0.0951809
-0.0900169
-0.0841758
-0.078089
-0.072222
-0.0670329
-0.0629114
-0.0601092
-0.058683
-0.0584741
-0.0591442
-0.0602658
-0.0614372
-0.0623703
-0.0629261
-0.0631035
-0.0629903
-0.0626905
-0.0623155
-0.0619648
-0.061696
-0.0615003
-0.0613551
0.00392201
0.00352307
0.00288404
0.00211032
0.00129507
0.000410546
-0.000728502
-0.00243122
-0.00508266
-0.00907688
-0.0147295
-0.0221968
-0.0314319
-0.0421905
-0.0540735
-0.0665875
-0.0792054
-0.0914175
-0.102768
-0.11288
-0.121467
-0.128329
-0.13334
-0.136439
-0.137645
-0.137018
-0.134628
-0.130623
-0.125185
-0.118547
-0.110994
-0.102878
-0.0946119
-0.0866519
-0.0794581
-0.0734308
-0.0688344
-0.0657327
-0.0639682
-0.0632086
-0.0630499
-0.0631313
-0.0632081
-0.0631738
-0.0630245
-0.0628015
-0.0625677
-0.0623767
-0.0622366
-0.0621359
0.00557822
0.00505006
0.00427579
0.00333739
0.0022393
0.000843311
-0.00116272
-0.00421475
-0.00879016
-0.0152973
-0.023966
-0.0347817
-0.0474833
-0.0616131
-0.0765936
-0.0918077
-0.106667
-0.120661
-0.13338
-0.144524
-0.153899
-0.161392
-0.166946
-0.170542
-0.172224
-0.172089
-0.170182
-0.166581
-0.161373
-0.154657
-0.14656
-0.137254
-0.126986
-0.116101
-0.105064
-0.094448
-0.0848709
-0.076892
-0.0708727
-0.0668639
-0.0645874
-0.0635454
-0.0632041
-0.0631489
-0.0631495
-0.06313
-0.0630853
-0.0630385
-0.0629934
-0.0629484
0.00735003
0.00670683
0.00578618
0.00460116
0.00302305
0.000772979
-0.00260109
-0.00764003
-0.0148435
-0.0245287
-0.036732
-0.0511876
-0.0673799
-0.0846382
-0.102241
-0.11951
-0.135868
-0.150879
-0.164239
-0.175768
-0.185378
-0.19305
-0.19879
-0.202616
-0.20459
-0.204837
-0.203393
-0.200302
-0.195595
-0.189291
-0.181401
-0.17194
-0.160955
-0.148578
-0.135083
-0.120948
-0.106883
-0.0937797
-0.08256
-0.0739315
-0.0681439
-0.0648965
-0.0634878
-0.0631264
-0.0632017
-0.0633832
-0.0635633
-0.0637013
-0.0637763
-0.0637909
0.00897946
0.00824021
0.0071377
0.0055731
0.00324932
-0.000266617
-0.0055501
-0.0131835
-0.0235845
-0.0368662
-0.0527832
-0.070775
-0.0900764
-0.109851
-0.129314
-0.147814
-0.164876
-0.180195
-0.193611
-0.205063
-0.21456
-0.222147
-0.227873
-0.231776
-0.233921
-0.234434
-0.233349
-0.230697
-0.226496
-0.220737
-0.213383
-0.204366
-0.1936
-0.181017
-0.166636
-0.150654
-0.133564
-0.116236
-0.0998778
-0.0858279
-0.0751571
-0.0682591
-0.0646897
-0.0634212
-0.0633488
-0.0636921
-0.0640908
-0.0644264
-0.0646315
-0.0647063
0.0101131
0.00928265
0.00793116
0.00580968
0.00243359
-0.00277346
-0.0104594
-0.0211534
-0.0350787
-0.0520507
-0.0714946
-0.0925619
-0.114294
-0.135783
-0.15628
-0.175258
-0.192401
-0.207563
-0.220716
-0.231896
-0.241167
-0.248606
-0.254275
-0.258215
-0.260476
-0.261173
-0.260327
-0.257973
-0.254129
-0.248796
-0.241939
-0.233481
-0.223295
-0.211217
-0.197077
-0.180785
-0.162464
-0.14263
-0.122333
-0.103151
-0.0868819
-0.0749395
-0.0677412
-0.0645229
-0.0638068
-0.0641732
-0.0647687
-0.0652967
-0.0656337
-0.0657718
0.010322
0.00938623
0.00769462
0.0048174
8.67843e-05
-0.00718004
-0.0176261
-0.0316227
-0.0491035
-0.0695328
-0.0920096
-0.115456
-0.138819
-0.161226
-0.182067
-0.200993
-0.217864
-0.232677
-0.245497
-0.25641
-0.265503
-0.272849
-0.278505
-0.282501
-0.284869
-0.285702
-0.28501
-0.282827
-0.279178
-0.274078
-0.267516
-0.259446
-0.249769
-0.238321
-0.224876
-0.209179
-0.191039
-0.17051
-0.148142
-0.12522
-0.103762
-0.0860565
-0.0737837
-0.0671677
-0.0648907
-0.0649356
-0.0656803
-0.0663925
-0.0668699
-0.0670833
0.0091615
0.00809502
0.00596154
0.00214126
-0.00419028
-0.0137652
-0.0271334
-0.0444165
-0.0651994
-0.0885904
-0.113416
-0.138464
-0.162701
-0.18539
-0.206112
-0.224711
-0.241197
-0.255662
-0.268219
-0.278967
-0.287982
-0.295321
-0.301024
-0.305106
-0.307584
-0.308531
-0.307948
-0.305864
-0.302305
-0.297294
-0.29084
-0.282933
-0.273524
-0.262507
-0.249698
-0.234824
-0.217553
-0.197596
-0.174948
-0.150238
-0.125071
-0.102003
-0.0838313
-0.0723068
-0.0671196
-0.0661451
-0.0668764
-0.067781
-0.0684232
-0.068737
0.00625499
0.00502537
0.00235773
-0.00254741
-0.0106281
-0.0225991
-0.0388365
-0.0591496
-0.0827592
-0.108459
-0.13489
-0.16082
-0.185328
-0.207874
-0.228241
-0.246436
-0.26257
-0.276781
-0.289187
-0.299874
-0.308895
-0.316287
-0.322072
-0.326254
-0.328837
-0.329884
-0.329393
-0.327382
-0.323874
-0.31889
-0.312448
-0.304559
-0.295213
-0.28437
-0.271927
-0.257688
-0.241341
-0.222473
-0.200703
-0.175984
-0.149107
-0.122143
-0.0983197
-0.0808674
-0.0712343
-0.0681127
-0.0684296
-0.0695235
-0.0703664
-0.070823
0.00136325
-6.01731e-05
-0.00332568
-0.00938739
-0.0192449
-0.0335322
-0.0523917
-0.0752955
-0.101126
-0.128436
-0.155785
-0.182013
-0.206382
-0.228557
-0.2485
-0.266326
-0.282198
-0.296258
-0.308604
-0.319296
-0.328364
-0.335827
-0.341697
-0.345971
-0.348646
-0.34978
-0.349371
-0.34743
-0.343973
-0.339016
-0.332573
-0.32466
-0.315287
-0.304453
-0.292129
-0.278223
-0.262528
-0.244689
-0.224204
-0.20059
-0.173812
-0.144965
-0.116819
-0.0933871
-0.078063
-0.0713632
-0.0705048
-0.0716853
-0.0727764
-0.0734321
-0.00556679
-0.00720513
-0.0110917
-0.0183021
-0.0298447
-0.0462228
-0.0673139
-0.0922635
-0.119672
-0.147941
-0.175642
-0.201756
-0.225748
-0.24747
-0.26701
-0.284545
-0.300243
-0.314225
-0.32656
-0.33728
-0.346397
-0.35392
-0.359856
-0.364201
-0.366949
-0.368154
-0.36782
-0.365949
-0.362553
-0.357643
-0.351227
-0.343315
-0.333919
-0.323051
-0.310724
-0.296923
-0.281565
-0.264431
-0.245102
-0.222965
-0.197438
-0.168596
-0.1381
-0.109722
-0.0882397
-0.0765731
-0.0734207
-0.0743689
-0.0757672
-0.0766709
-0.0143875
-0.0162477
-0.0207353
-0.0290129
-0.0420508
-0.0601911
-0.0830442
-0.109467
-0.137852
-0.166536
-0.194171
-0.219916
-0.243424
-0.264694
-0.283891
-0.301208
-0.316792
-0.330732
-0.343068
-0.353809
-0.362956
-0.370515
-0.376493
-0.380886
-0.383689
-0.384949
-0.384679
-0.382875
-0.379546
-0.374701
-0.368341
-0.360472
-0.351099
-0.340233
-0.327894
-0.314107
-0.298874
-0.282119
-0.263595
-0.242784
-0.218927
-0.191373
-0.160517
-0.129009
-0.101923
-0.0843869
-0.0776373
-0.0777351
-0.0794626
-0.0806512
-0.0247711
-0.0268443
-0.0318753
-0.0410827
-0.0553614
-0.0748825
-0.099011
-0.126371
-0.155222
-0.183907
-0.211203
-0.236446
-0.259447
-0.280306
-0.29922
-0.31637
-0.331871
-0.345777
-0.358102
-0.368844
-0.378
-0.385572
-0.39157
-0.395994
-0.398835
-0.400137
-0.399921
-0.398176
-0.394913
-0.390137
-0.383851
-0.376056
-0.366752
-0.355943
-0.343643
-0.329881
-0.3147
-0.29812
-0.280061
-0.260212
-0.237907
-0.212201
-0.182486
-0.149899
-0.118666
-0.0951817
-0.0836606
-0.0820145
-0.0839681
-0.085486
-0.0362559
-0.0385186
-0.0440086
-0.0539752
-0.0692117
-0.0897265
-0.114677
-0.142517
-0.171439
-0.199842
-0.226642
-0.251336
-0.273854
-0.294351
-0.313031
-0.330043
-0.345469
-0.359333
-0.371631
-0.382355
-0.3915
-0.399068
-0.405072
-0.409513
-0.412383
-0.413716
-0.413543
-0.41185
-0.408646
-0.403937
-0.397727
-0.390018
-0.380809
-0.370099
-0.357895
-0.344216
-0.329108
-0.312632
-0.294826
-0.275581
-0.254468
-0.230597
-0.202835
-0.170929
-0.1375
-0.108901
-0.0919192
-0.0875003
-0.0893742
-0.0912949
-0.0483062
-0.050722
-0.0565716
-0.0671161
-0.0830307
-0.104183
-0.129568
-0.15753
-0.186244
-0.214194
-0.240432
-0.264584
-0.286661
-0.306846
-0.325324
-0.342214
-0.357561
-0.37137
-0.383626
-0.394318
-0.403439
-0.410994
-0.416995
-0.421446
-0.424337
-0.425692
-0.425555
-0.423904
-0.420751
-0.416102
-0.409963
-0.40234
-0.393232
-0.382641
-0.370569
-0.357026
-0.342046
-0.325694
-0.30806
-0.289183
-0.268885
-0.246531
-0.220915
-0.190857
-0.157181
-0.125017
-0.102611
-0.0944726
-0.0957737
-0.0981902
-0.0603716
-0.0628934
-0.0689989
-0.0799469
-0.0962858
-0.117771
-0.143286
-0.17111
-0.199444
-0.22686
-0.252531
-0.276179
-0.297867
-0.31778
-0.336079
-0.352851
-0.368115
-0.38186
-0.394065
-0.404716
-0.413809
-0.421347
-0.427341
-0.431797
-0.434704
-0.436075
-0.435967
-0.43435
-0.431239
-0.42664
-0.420563
-0.413016
-0.404005
-0.393533
-0.381605
-0.368229
-0.353426
-0.337249
-0.319794
-0.301179
-0.281422
-0.260193
-0.236514
-0.208835
-0.176473
-0.142629
-0.115587
-0.103123
-0.103275
-0.106229
-0.0719373
-0.0745143
-0.0807704
-0.0919647
-0.108512
-0.13009
-0.155509
-0.18303
-0.210894
-0.237762
-0.262901
-0.2861
-0.30745
-0.327126
-0.345264
-0.361922
-0.377101
-0.390778
-0.402929
-0.41354
-0.422605
-0.430126
-0.436112
-0.440571
-0.443491
-0.444871
-0.444787
-0.443197
-0.440118
-0.435559
-0.429532
-0.422049
-0.41312
-0.402757
-0.390968
-0.377763
-0.363161
-0.347201
-0.329968
-0.3116
-0.292232
-0.271803
-0.249689
-0.224414
-0.194356
-0.160645
-0.130334
-0.113465
-0.111935
-0.11535
-0.0825843
-0.0851224
-0.0914454
-0.102747
-0.119328
-0.140815
-0.165988
-0.193115
-0.220486
-0.246836
-0.271502
-0.294316
-0.315378
-0.334849
-0.352842
-0.369394
-0.384491
-0.398103
-0.410205
-0.42078
-0.429823
-0.437331
-0.443311
-0.447771
-0.450701
-0.452087
-0.452021
-0.450451
-0.447394
-0.442864
-0.436874
-0.429438
-0.420574
-0.4103
-0.398632
-0.385586
-0.371183
-0.355458
-0.338481
-0.320384
-0.301354
-0.281511
-0.260586
-0.237442
-0.210113
-0.177979
-0.146041
-0.125255
-0.121654
-0.125313
-0.091995
-0.0943405
-0.100664
-0.111967
-0.128441
-0.149707
-0.17454
-0.201236
-0.228135
-0.254027
-0.278294
-0.30079
-0.321613
-0.340911
-0.358777
-0.375233
-0.390258
-0.403816
-0.415879
-0.426428
-0.435456
-0.442959
-0.448938
-0.453401
-0.45634
-0.457733
-0.457677
-0.45612
-0.453076
-0.448561
-0.44259
-0.435183
-0.426362
-0.416152
-0.404578
-0.391665
-0.377441
-0.361942
-0.345232
-0.32743
-0.308732
-0.289362
-0.269331
-0.247933
-0.223319
-0.193696
-0.161737
-0.137964
-0.132091
-0.135694
-0.099921
-0.101938
-0.108154
-0.11938
-0.135646
-0.156594
-0.181036
-0.207305
-0.233781
-0.259291
-0.283239
-0.305483
-0.326116
-0.345273
-0.363033
-0.379411
-0.394379
-0.407898
-0.419937
-0.430476
-0.439502
-0.447009
-0.452995
-0.457466
-0.460413
-0.461818
-0.461767
-0.460218
-0.457176
-0.452662
-0.446692
-0.439291
-0.430485
-0.420308
-0.408793
-0.395975
-0.381894
-0.36659
-0.35013
-0.332624
-0.314262
-0.295313
-0.275977
-0.255948
-0.233768
-0.207089
-0.176439
-0.150841
-0.1427
-0.145955
-0.106195
-0.107796
-0.113761
-0.124835
-0.140824
-0.161396
-0.185419
-0.211279
-0.237391
-0.262598
-0.286305
-0.308362
-0.328851
-0.347899
-0.365579
-0.3819
-0.396831
-0.410332
-0.422367
-0.432912
-0.441953
-0.449479
-0.455484
-0.459969
-0.462929
-0.464345
-0.464296
-0.462752
-0.459703
-0.455175
-0.449188
-0.441767
-0.432947
-0.422766
-0.411268
-0.3985
-0.384511
-0.369355
-0.353102
-0.335864
-0.317824
-0.299265
-0.280497
-0.261527
-0.241386
-0.217686
-0.189278
-0.163041
-0.152847
-0.155524
-0.110752
-0.111878
-0.117444
-0.128272
-0.143923
-0.164065
-0.187646
-0.213114
-0.238918
-0.263903
-0.287455
-0.309401
-0.329805
-0.348784
-0.366413
-0.382701
-0.39762
-0.411125
-0.423178
-0.433751
-0.442824
-0.450382
-0.456415
-0.460917
-0.463885
-0.465305
-0.465253
-0.463712
-0.460647
-0.456092
-0.450068
-0.442604
-0.433737
-0.423516
-0.411992
-0.399224
-0.38527
-0.370197
-0.354089
-0.337062
-0.319302
-0.301095
-0.282808
-0.264664
-0.246156
-0.225205
-0.199564
-0.173745
-0.161898
-0.16386
-0.113616
-0.114238
-0.119269
-0.129738
-0.144986
-0.164642
-0.187743
-0.212813
-0.238338
-0.263157
-0.286621
-0.308518
-0.32889
-0.347846
-0.365461
-0.381751
-0.39669
-0.410232
-0.422337
-0.432972
-0.442109
-0.449732
-0.455823
-0.460375
-0.46338
-0.464822
-0.464746
-0.463175
-0.46006
-0.455438
-0.449337
-0.44179
-0.432841
-0.42254
-0.410945
-0.398121
-0.38414
-0.369081
-0.353041
-0.336149
-0.318598
-0.300682
-0.282798
-0.265306
-0.24807
-0.229498
-0.206803
-0.182242
-0.169282
-0.170482
-0.114899
-0.115016
-0.119391
-0.129361
-0.144121
-0.163222
-0.185786
-0.210429
-0.23568
-0.260365
-0.283791
-0.305696
-0.326088
-0.345064
-0.362702
-0.379026
-0.394015
-0.407625
-0.419812
-0.430537
-0.439767
-0.447478
-0.45365
-0.458268
-0.461324
-0.462806
-0.462731
-0.46114
-0.457975
-0.453277
-0.447079
-0.439413
-0.430326
-0.419877
-0.408134
-0.395176
-0.381091
-0.365967
-0.34991
-0.333061
-0.315629
-0.297919
-0.280351
-0.263367
-0.24711
-0.230497
-0.210674
-0.187962
-0.174504
-0.174971
-0.114775
-0.114425
-0.118046
-0.127345
-0.141493
-0.159943
-0.181885
-0.206036
-0.230982
-0.255539
-0.278958
-0.300917
-0.321379
-0.340421
-0.358123
-0.374519
-0.389593
-0.403306
-0.41561
-0.42646
-0.435816
-0.443647
-0.449927
-0.454635
-0.457759
-0.459286
-0.459219
-0.457607
-0.454384
-0.449593
-0.443273
-0.435459
-0.4262
-0.415561
-0.403616
-0.390453
-0.376164
-0.360858
-0.344662
-0.327742
-0.31032
-0.292711
-0.275358
-0.258755
-0.243236
-0.228175
-0.210986
-0.190472
-0.177135
-0.176962
-0.113473
-0.112728
-0.115534
-0.123965
-0.137332
-0.154998
-0.176191
-0.199739
-0.2243
-0.248691
-0.272105
-0.294148
-0.314724
-0.333881
-0.351694
-0.368205
-0.383407
-0.397265
-0.409728
-0.420744
-0.430267
-0.438255
-0.444676
-0.449502
-0.452715
-0.4543
-0.454247
-0.452614
-0.449328
-0.444429
-0.437962
-0.429966
-0.42049
-0.409606
-0.397393
-0.383946
-0.36937
-0.353785
-0.337333
-0.320198
-0.302632
-0.284989
-0.26773
-0.25138
-0.236402
-0.222523
-0.207638
-0.189463
-0.176808
-0.176131
-0.111258
-0.110216
-0.112191
-0.119559
-0.131929
-0.148628
-0.168902
-0.191681
-0.215719
-0.23985
-0.263219
-0.28535
-0.306073
-0.325393
-0.343371
-0.36005
-0.375431
-0.389482
-0.402152
-0.413382
-0.423116
-0.431305
-0.437907
-0.442885
-0.446215
-0.447877
-0.447856
-0.446201
-0.44285
-0.437832
-0.431196
-0.422984
-0.413248
-0.402061
-0.389511
-0.375697
-0.360734
-0.344754
-0.327919
-0.310434
-0.292582
-0.274743
-0.257424
-0.241182
-0.226563
-0.213544
-0.200594
-0.184731
-0.173199
-0.172181
-0.108408
-0.107183
-0.108365
-0.114502
-0.125624
-0.141124
-0.160255
-0.182044
-0.205353
-0.229068
-0.252298
-0.274483
-0.295369
-0.314899
-0.333102
-0.350011
-0.365633
-0.379937
-0.392872
-0.404371
-0.414371
-0.422811
-0.429639
-0.43481
-0.438292
-0.440058
-0.440089
-0.438419
-0.435006
-0.429862
-0.423038
-0.414578
-0.404539
-0.392993
-0.380032
-0.365763
-0.350308
-0.333812
-0.316454
-0.298468
-0.280167
-0.261973
-0.244438
-0.228154
-0.213718
-0.201258
-0.189862
-0.176154
-0.166024
-0.164831
-0.105191
-0.103896
-0.104374
-0.109176
-0.118798
-0.132818
-0.150528
-0.171045
-0.193356
-0.216424
-0.239354
-0.261513
-0.28255
-0.302327
-0.320818
-0.338036
-0.353977
-0.36861
-0.38188
-0.393717
-0.404046
-0.412796
-0.419905
-0.425318
-0.428992
-0.430896
-0.431004
-0.429336
-0.425867
-0.420595
-0.413566
-0.404831
-0.394446
-0.382485
-0.369041
-0.354225
-0.338168
-0.321028
-0.303004
-0.284356
-0.265437
-0.246716
-0.228796
-0.212319
-0.197922
-0.185739
-0.175501
-0.163693
-0.155035
-0.153807
-0.101842
-0.100575
-0.100482
-0.103938
-0.111846
-0.124077
-0.140035
-0.158939
-0.179911
-0.202028
-0.224422
-0.246412
-0.267548
-0.28759
-0.306437
-0.324053
-0.340411
-0.355469
-0.369166
-0.381425
-0.392162
-0.401295
-0.408749
-0.414461
-0.418378
-0.420459
-0.420677
-0.419034
-0.415522
-0.410121
-0.402878
-0.393844
-0.383074
-0.370642
-0.356642
-0.341189
-0.324419
-0.306505
-0.287667
-0.268196
-0.248489
-0.229067
-0.210589
-0.193752
-0.179247
-0.167135
-0.157641
-0.147389
-0.140044
-0.138854
-0.0985481
-0.0973766
-0.0968754
-0.0990784
-0.105146
-0.115287
-0.129117
-0.146008
-0.165237
-0.186022
-0.207568
-0.229174
-0.250302
-0.270598
-0.289859
-0.307973
-0.324866
-0.340472
-0.354713
-0.367501
-0.378742
-0.388345
-0.396224
-0.402304
-0.406522
-0.408832
-0.409198
-0.407611
-0.404074
-0.398552
-0.391089
-0.381736
-0.370546
-0.357592
-0.342966
-0.326786
-0.309196
-0.290381
-0.270585
-0.250136
-0.229477
-0.209187
-0.189986
-0.172625
-0.157831
-0.145652
-0.13648
-0.127364
-0.120951
-0.119742
-0.0954386
-0.0944034
-0.0936632
-0.0947993
-0.0990182
-0.106826
-0.118139
-0.132563
-0.149581
-0.168586
-0.188897
-0.209829
-0.230777
-0.251272
-0.270984
-0.289696
-0.30726
-0.32356
-0.33849
-0.351943
-0.363811
-0.373992
-0.382391
-0.388921
-0.393513
-0.396111
-0.396675
-0.39518
-0.391643
-0.386015
-0.378333
-0.368646
-0.357008
-0.343485
-0.32817
-0.311181
-0.29267
-0.272838
-0.251955
-0.230387
-0.208628
-0.187321
-0.167245
-0.149201
-0.133942
-0.121523
-0.112285
-0.103804
-0.0977444
-0.0962333
-0.0925915
-0.0917108
-0.0908851
-0.0912001
-0.0936895
-0.0990233
-0.107452
-0.118925
-0.133214
-0.149935
-0.16856
-0.188461
-0.208993
-0.229575
-0.249739
-0.269136
-0.287511
-0.304671
-0.32046
-0.334741
-0.347387
-0.35828
-0.367314
-0.374395
-0.379446
-0.382404
-0.383222
-0.381871
-0.378363
-0.372651
-0.364758
-0.354732
-0.342624
-0.328497
-0.312441
-0.294577
-0.275066
-0.254123
-0.232047
-0.209246
-0.18627
-0.16382
-0.142737
-0.123858
-0.107954
-0.0950399
-0.08541
-0.076936
-0.0704762
-0.0679882
-0.090039
-0.0893212
-0.0885329
-0.0882855
-0.0892609
-0.0921021
-0.0973546
-0.105404
-0.116419
-0.130318
-0.146768
-0.165233
-0.185053
-0.205554
-0.226124
-0.24626
-0.265571
-0.28376
-0.300596
-0.315892
-0.329489
-0.341251
-0.351059
-0.358811
-0.364422
-0.367825
-0.368968
-0.367819
-0.36438
-0.358614
-0.350531
-0.340172
-0.327586
-0.312837
-0.296011
-0.277232
-0.25667
-0.234559
-0.211227
-0.187123
-0.162851
-0.139168
-0.116963
-0.0970993
-0.0803415
-0.0666233
-0.0562862
-0.0470293
-0.0393484
-0.0346065
-0.0877726
-0.0872304
-0.0865698
-0.085984
-0.085694
-0.0861299
-0.0880286
-0.0922492
-0.0994718
-0.110014
-0.123796
-0.140403
-0.159187
-0.179393
-0.20027
-0.221152
-0.241492
-0.26086
-0.278924
-0.295427
-0.310163
-0.322969
-0.333707
-0.342265
-0.348554
-0.3525
-0.354051
-0.353172
-0.349855
-0.344081
-0.33584
-0.325171
-0.312125
-0.296762
-0.279171
-0.259478
-0.237864
-0.214581
-0.189986
-0.164568
-0.138971
-0.113999
-0.0905678
-0.0695475
-0.0516743
-0.0368034
-0.0253835
-0.0144136
-0.00499967
0.00397091
-0.0857354
-0.0853991
-0.0849359
-0.0841635
-0.0828092
-0.0809767
-0.0794712
-0.0795956
-0.0826113
-0.0893313
-0.0999991
-0.114356
-0.131784
-0.151461
-0.172506
-0.194092
-0.215501
-0.236154
-0.255595
-0.273478
-0.289534
-0.303557
-0.315386
-0.324896
-0.331988
-0.336589
-0.338642
-0.338113
-0.334988
-0.329265
-0.32092
-0.309992
-0.296532
-0.280604
-0.262298
-0.241749
-0.219146
-0.194761
-0.168973
-0.142298
-0.115407
-0.089118
-0.0643405
-0.0419197
-0.0225446
-0.00602866
0.00706292
0.0208111
0.0317274
0.0475549
-0.0838064
-0.0837309
-0.0835234
-0.08262
-0.0802878
-0.076302
-0.0714554
-0.0674113
-0.0660059
-0.0686033
-0.0758327
-0.0876343
-0.103438
-0.122369
-0.143427
-0.165627
-0.188087
-0.210067
-0.230979
-0.250367
-0.267885
-0.283274
-0.296341
-0.306938
-0.31496
-0.320327
-0.322985
-0.322898
-0.32005
-0.314452
-0.306085
-0.294979
-0.281194
-0.264798
-0.24589
-0.22461
-0.201162
-0.175829
-0.149004
-0.121208
-0.0931067
-0.0654868
-0.0392025
-0.0150192
0.00646319
0.0254883
0.0414605
0.0594425
0.0717745
0.0982295
-0.0817911
-0.0820431
-0.0821244
-0.0810348
-0.077669
-0.071582
-0.0635481
-0.055494
-0.0497428
-0.0481878
-0.0518707
-0.060967
-0.0749824
-0.0930049
-0.11393
-0.136631
-0.160068
-0.183349
-0.205746
-0.226691
-0.24575
-0.262602
-0.277009
-0.288801
-0.297857
-0.304093
-0.307452
-0.307904
-0.305432
-0.300052
-0.291766
-0.280602
-0.266624
-0.249914
-0.23058
-0.208773
-0.184704
-0.158664
-0.131036
-0.102319
-0.0731229
-0.0441501
-0.0161328
0.0103114
0.0347485
0.0576087
0.078501
0.103271
0.120267
0.163307
-0.0794758
-0.0800835
-0.0804508
-0.0790109
-0.074412
-0.0662019
-0.0552226
-0.0435622
-0.0338806
-0.0284953
-0.0288262
-0.035296
-0.0475132
-0.0645556
-0.0852388
-0.108317
-0.132614
-0.157097
-0.180912
-0.203376
-0.223968
-0.242298
-0.258082
-0.27112
-0.281272
-0.288447
-0.292589
-0.293667
-0.291673
-0.28662
-0.278537
-0.267459
-0.253464
-0.236645
-0.217122
-0.195053
-0.170654
-0.144202
-0.116049
-0.0866296
-0.0564472
-0.0260491
0.00403007
0.0334037
0.0618907
0.0902411
0.118461
0.153641
0.183416
0.248099
-0.0769644
-0.0778135
-0.0783117
-0.0762666
-0.0702173
-0.0597893
-0.0461209
-0.0314635
-0.0185855
-0.0100486
-0.00755888
-0.0117535
-0.0223546
-0.0384622
-0.0588501
-0.0821887
-0.107195
-0.132722
-0.157802
-0.181656
-0.203677
-0.22341
-0.240524
-0.254785
-0.266034
-0.27417
-0.279136
-0.280905
-0.279477
-0.274871
-0.267123
-0.256284
-0.242452
-0.225742
-0.206284
-0.184234
-0.159795
-0.133216
-0.10479
-0.0748451
-0.0437262
-0.0117497
0.0208561
0.0540845
0.0881799
0.124334
0.162859
0.212514
0.260013
0.338577
-0.0755424
-0.0762407
-0.0763692
-0.0731453
-0.0652653
-0.0526128
-0.0365325
-0.0195346
-0.00439648
0.0063799
0.0108961
0.00837034
-0.000996614
-0.0163435
-0.0364461
-0.0599377
-0.0854691
-0.111814
-0.137921
-0.162932
-0.186171
-0.207126
-0.22542
-0.240788
-0.253053
-0.262103
-0.267877
-0.270353
-0.269538
-0.265464
-0.258187
-0.247751
-0.234241
-0.217804
-0.198588
-0.176753
-0.152474
-0.12595
-0.097396
-0.0670115
-0.0349376
-0.00118168
0.0344875
0.0727367
0.114733
0.162806
0.218023
0.289146
0.349509
0.424477
-0.0797154
-0.0790164
-0.0774082
-0.0717989
-0.0612517
-0.0460124
-0.0276852
-0.00887225
0.00764614
0.0196578
0.0253973
0.0238634
0.0152431
0.000375318
-0.0195404
-0.0431352
-0.0690323
-0.0959614
-0.12282
-0.148695
-0.172861
-0.194761
-0.213985
-0.230242
-0.243337
-0.25315
-0.259615
-0.262711
-0.262452
-0.258878
-0.25205
-0.242059
-0.228983
-0.212903
-0.193977
-0.172382
-0.148283
-0.121833
-0.093164
-0.0623384
-0.0292722
0.00639931
0.045525
0.0898189
0.142199
0.207889
0.291682
0.403599
0.495858
0.603435
-0.103148
-0.0953284
-0.0868833
-0.0760951
-0.0617313
-0.0433987
-0.0227417
-0.00233908
0.0153608
0.0281468
0.0343287
0.0332191
0.025009
0.0104886
-0.00918819
-0.0326869
-0.0586462
-0.0857918
-0.113002
-0.139335
-0.164034
-0.186511
-0.20633
-0.223178
-0.236843
-0.247195
-0.254162
-0.257722
-0.257887
-0.254699
-0.248224
-0.238548
-0.225769
-0.209996
-0.191356
-0.169987
-0.146039
-0.119638
-0.0908452
-0.0596001
-0.0256004
0.0118974
0.0544083
0.104853
0.168358
0.254419
0.375709
0.555752
0.767711
1.10786
-0.189984
-0.112229
-0.0806421
-0.0714135
-0.0581351
-0.0387599
-0.0170599
0.00395022
0.0217608
0.034196
0.0398502
0.0382398
0.0296368
0.0148606
-0.00494192
-0.0284729
-0.054417
-0.0815386
-0.108743
-0.135103
-0.159866
-0.182444
-0.202394
-0.219397
-0.233234
-0.243767
-0.250922
-0.254672
-0.255027
-0.252029
-0.245742
-0.236251
-0.223655
-0.208064
-0.189598
-0.168389
-0.144573
-0.118244
-0.0894089
-0.057909
-0.0232779
0.0155081
0.0604415
0.115264
0.186534
0.286596
0.435339
0.680397
1.07939
1.82855
)
;

boundaryField
{
    movingWall
    {
        type            zeroGradient;
    }
    fixedWalls
    {
        type            zeroGradient;
    }
    frontAndBack
    {
        type            empty;
    }
}


// ************************************************************************* //
