/*--------------------------------*- C++ -*----------------------------------*\
  =========                 |
  \\      /  F ield         | OpenFOAM: The Open Source CFD Toolbox
   \\    /   O peration     | Website:  https://openfoam.org
    \\  /    A nd           | Version:  7
     \\/     M anipulation  |
\*---------------------------------------------------------------------------*/
FoamFile
{
    version     2.0;
    format      ascii;
    class       volVectorField;
    location    "1700";
    object      U;
}
// * * * * * * * * * * * * * * * * * * * * * * * * * * * * * * * * * * * * * //

dimensions      [0 1 -1 0 0 0 0];

internalField   nonuniform List<vector> 
2500
(
(0.00020797 -0.000200705 0)
(0.00186694 -0.000570785 0)
(0.00447462 -0.000697797 0)
(0.00716338 -0.000600082 0)
(0.00922944 -0.000418985 0)
(0.0104508 -0.000264324 0)
(0.0109306 -0.000187988 0)
(0.0108815 -0.000185858 0)
(0.0104511 -0.000219844 0)
(0.00963468 -0.000245413 0)
(0.00828325 -0.000228675 0)
(0.00616442 -0.000150776 0)
(0.00302094 -2.6733e-06 0)
(-0.00139091 0.000221014 0)
(-0.00727573 0.000523424 0)
(-0.014766 0.000908096 0)
(-0.0238843 0.00137503 0)
(-0.0345004 0.00191258 0)
(-0.0462965 0.00248755 0)
(-0.0587466 0.00303765 0)
(-0.0711222 0.0034731 0)
(-0.08253 0.00368931 0)
(-0.0919807 0.00358788 0)
(-0.0984917 0.00310366 0)
(-0.101198 0.0022309 0)
(-0.0994258 0.00102768 0)
(-0.0929071 -0.000375151 0)
(-0.0817153 -0.00181201 0)
(-0.0663181 -0.0031094 0)
(-0.0475726 -0.00410041 0)
(-0.026698 -0.00464002 0)
(-0.00517619 -0.00460555 0)
(0.0154671 -0.00393509 0)
(0.0337619 -0.00278372 0)
(0.0484012 -0.0013707 0)
(0.0584297 0.00012628 0)
(0.0634675 0.0014974 0)
(0.0637276 0.00253461 0)
(0.0600163 0.00311209 0)
(0.0534993 0.00322492 0)
(0.0454083 0.00298644 0)
(0.0368467 0.00254955 0)
(0.0286511 0.00204864 0)
(0.0213415 0.00157429 0)
(0.0151474 0.00117418 0)
(0.0100798 0.000863381 0)
(0.0060289 0.000631212 0)
(0.00290105 0.000436001 0)
(0.000795292 0.000192774 0)
(-8.20319e-05 -8.74329e-05 0)
(0.00056659 -0.00181764 0)
(0.00437529 -0.00431595 0)
(0.00958257 -0.00511652 0)
(0.0146043 -0.00444057 0)
(0.018162 -0.00299827 0)
(0.0197689 -0.00145775 0)
(0.0194636 -0.000192408 0)
(0.0174572 0.000765665 0)
(0.013835 0.00162526 0)
(0.00840813 0.0026651 0)
(0.000739857 0.00410247 0)
(-0.00972601 0.00604331 0)
(-0.0235186 0.0084918 0)
(-0.0410001 0.0113809 0)
(-0.062251 0.0145722 0)
(-0.086964 0.01784 0)
(-0.114381 0.0208639 0)
(-0.143308 0.0232517 0)
(-0.172223 0.0245947 0)
(-0.199446 0.0245357 0)
(-0.223319 0.0228276 0)
(-0.242364 0.0193708 0)
(-0.25538 0.0142297 0)
(-0.261511 0.00763676 0)
(-0.260283 -1.82096e-05 0)
(-0.25163 -0.00821895 0)
(-0.235743 -0.016395 0)
(-0.213071 -0.0239927 0)
(-0.184383 -0.0304488 0)
(-0.150767 -0.0352294 0)
(-0.113631 -0.0378724 0)
(-0.0746736 -0.0380344 0)
(-0.0358056 -0.0355708 0)
(0.00103899 -0.0306647 0)
(0.0340154 -0.0238149 0)
(0.061447 -0.0157473 0)
(0.0820166 -0.00728301 0)
(0.0950032 0.000695378 0)
(0.100272 0.00734459 0)
(0.0984376 0.0120826 0)
(0.0909553 0.014712 0)
(0.0796113 0.0154347 0)
(0.0662316 0.0147154 0)
(0.052414 0.0131076 0)
(0.0393366 0.0111171 0)
(0.0276935 0.00911025 0)
(0.0177732 0.00724871 0)
(0.00968207 0.00543455 0)
(0.00372614 0.00334313 0)
(0.000329278 0.000918415 0)
(0.000785799 -0.00449503 0)
(0.00568901 -0.00969456 0)
(0.0117185 -0.0109169 0)
(0.0169074 -0.00900568 0)
(0.019765 -0.00542398 0)
(0.0197142 -0.00146975 0)
(0.0166727 0.0021526 0)
(0.0106384 0.00542304 0)
(0.00138609 0.00878065 0)
(-0.0116159 0.0127918 0)
(-0.0290804 0.0178425 0)
(-0.0516352 0.02401 0)
(-0.0795857 0.0310828 0)
(-0.112702 0.0385973 0)
(-0.150112 0.0458733 0)
(-0.190338 0.0520922 0)
(-0.231494 0.0564303 0)
(-0.271543 0.0582014 0)
(-0.30856 0.0569592 0)
(-0.340923 0.0525381 0)
(-0.367392 0.0450369 0)
(-0.387122 0.0347703 0)
(-0.399598 0.0222117 0)
(-0.404564 0.00794275 0)
(-0.401945 -0.00738693 0)
(-0.391711 -0.0230971 0)
(-0.373902 -0.0384763 0)
(-0.34879 -0.0527333 0)
(-0.316861 -0.0650324 0)
(-0.27888 -0.0745377 0)
(-0.235936 -0.0804762 0)
(-0.189468 -0.0822363 0)
(-0.141237 -0.0794867 0)
(-0.0932474 -0.0722845 0)
(-0.0476086 -0.0611786 0)
(-0.00631596 -0.0471737 0)
(0.0289069 -0.0315612 0)
(0.0567024 -0.0157884 0)
(0.0763793 -0.00114538 0)
(0.087664 0.0111714 0)
(0.0908196 0.0202544 0)
(0.0870998 0.0257402 0)
(0.07821 0.0278612 0)
(0.0660401 0.027307 0)
(0.0523903 0.0249764 0)
(0.0387215 0.0217247 0)
(0.0260339 0.0181221 0)
(0.0149679 0.0142391 0)
(0.00625643 0.00958294 0)
(0.000705204 0.00358662 0)
(0.000917737 -0.00772685 0)
(0.00606875 -0.0155923 0)
(0.011547 -0.0165379 0)
(0.015165 -0.012452 0)
(0.0154195 -0.00573391 0)
(0.0117518 0.00169928 0)
(0.00393745 0.0089421 0)
(-0.00837231 0.0161029 0)
(-0.0258426 0.0239446 0)
(-0.0492888 0.033218 0)
(-0.0793483 0.0442033 0)
(-0.116119 0.0565597 0)
(-0.158933 0.0694114 0)
(-0.206338 0.0815356 0)
(-0.256294 0.091604 0)
(-0.306519 0.0984308 0)
(-0.354838 0.101167 0)
(-0.399443 0.0993915 0)
(-0.439002 0.0930916 0)
(-0.472638 0.0825689 0)
(-0.499824 0.0683203 0)
(-0.520258 0.050944 0)
(-0.533754 0.0310748 0)
(-0.540149 0.00934877 0)
(-0.539274 -0.0135803 0)
(-0.530944 -0.0369819 0)
(-0.515039 -0.06 0)
(-0.491536 -0.0816681 0)
(-0.460532 -0.100929 0)
(-0.422342 -0.116643 0)
(-0.377597 -0.127668 0)
(-0.327314 -0.132999 0)
(-0.272958 -0.131948 0)
(-0.216464 -0.124314 0)
(-0.16015 -0.110526 0)
(-0.106498 -0.0916941 0)
(-0.057857 -0.0695202 0)
(-0.016095 -0.0460076 0)
(0.0175936 -0.0230701 0)
(0.0426189 -0.0024501 0)
(0.0589185 0.0146158 0)
(0.0667525 0.027204 0)
(0.0672325 0.0349399 0)
(0.0619141 0.0381653 0)
(0.052587 0.0377845 0)
(0.0410427 0.0349329 0)
(0.028832 0.030568 0)
(0.0171899 0.0250316 0)
(0.00742139 0.0177399 0)
(0.000862116 0.00736581 0)
(0.000999807 -0.0110182 0)
(0.00561131 -0.0208279 0)
(0.00922991 -0.0203489 0)
(0.0096795 -0.0129027 0)
(0.00562183 -0.00193673 0)
(-0.00346182 0.0101259 0)
(-0.018036 0.0223844 0)
(-0.0388561 0.0352824 0)
(-0.066856 0.0497595 0)
(-0.102688 0.0663418 0)
(-0.14625 0.0846569 0)
(-0.196468 0.103474 0)
(-0.251403 0.121063 0)
(-0.308606 0.135629 0)
(-0.365575 0.145688 0)
(-0.420128 0.150288 0)
(-0.470621 0.149059 0)
(-0.515968 0.14213 0)
(-0.555543 0.129956 0)
(-0.589017 0.113152 0)
(-0.616227 0.092386 0)
(-0.637096 0.0683296 0)
(-0.651565 0.0416225 0)
(-0.659541 0.0128758 0)
(-0.660915 -0.0172606 0)
(-0.655571 -0.0480393 0)
(-0.643301 -0.0785977 0)
(-0.623811 -0.107943 0)
(-0.596803 -0.134902 0)
(-0.562061 -0.158102 0)
(-0.519543 -0.176061 0)
(-0.469532 -0.187323 0)
(-0.412832 -0.190644 0)
(-0.350927 -0.185243 0)
(-0.28603 -0.171095 0)
(-0.220973 -0.149138 0)
(-0.158918 -0.121264 0)
(-0.10287 -0.090077 0)
(-0.055117 -0.0584279 0)
(-0.0168469 -0.0288348 0)
(0.0118154 -0.0030732 0)
(0.0312494 0.0176553 0)
(0.0420089 0.0326809 0)
(0.0452981 0.0418495 0)
(0.0426364 0.0456998 0)
(0.0357503 0.0453004 0)
(0.0264029 0.0417604 0)
(0.0162524 0.0356005 0)
(0.00711047 0.0261578 0)
(0.000796563 0.0113831 0)
(0.00099581 -0.0139234 0)
(0.00416244 -0.0242954 0)
(0.00458241 -0.0208798 0)
(0.000398005 -0.00872796 0)
(-0.0094638 0.00765813 0)
(-0.0255654 0.0255965 0)
(-0.0486498 0.0444855 0)
(-0.0796973 0.0649981 0)
(-0.119422 0.0877913 0)
(-0.167642 0.112552 0)
(-0.223012 0.137825 0)
(-0.28323 0.161458 0)
(-0.345528 0.18123 0)
(-0.407215 0.195363 0)
(-0.466069 0.202789 0)
(-0.520505 0.203157 0)
(-0.569547 0.196692 0)
(-0.612692 0.183979 0)
(-0.649742 0.165757 0)
(-0.680691 0.142799 0)
(-0.705671 0.115869 0)
(-0.724892 0.085682 0)
(-0.738561 0.0528674 0)
(-0.746857 0.0180199 0)
(-0.749911 -0.0182421 0)
(-0.747737 -0.0552907 0)
(-0.740113 -0.092445 0)
(-0.72659 -0.128838 0)
(-0.706571 -0.163339 0)
(-0.679307 -0.194544 0)
(-0.643985 -0.220806 0)
(-0.599943 -0.240269 0)
(-0.546953 -0.251033 0)
(-0.485473 -0.251486 0)
(-0.416912 -0.240711 0)
(-0.343798 -0.218876 0)
(-0.269707 -0.187489 0)
(-0.198835 -0.149402 0)
(-0.135231 -0.108385 0)
(-0.0818958 -0.0683181 0)
(-0.0401187 -0.0323205 0)
(-0.00952465 -0.00225492 0)
(0.0110535 0.0211469 0)
(0.0228066 0.0376038 0)
(0.0271631 0.0473317 0)
(0.0257867 0.0511127 0)
(0.0204676 0.0499408 0)
(0.0130795 0.0443211 0)
(0.00574993 0.0334784 0)
(0.000591099 0.0148945 0)
(0.000840002 -0.0158652 0)
(0.00148492 -0.0247718 0)
(-0.0025936 -0.0166968 0)
(-0.0126831 0.0014474 0)
(-0.029568 0.0244018 0)
(-0.0539228 0.0495691 0)
(-0.0866472 0.0766405 0)
(-0.128501 0.10608 0)
(-0.179358 0.13764 0)
(-0.237791 0.169775 0)
(-0.301275 0.200004 0)
(-0.366775 0.225695 0)
(-0.431379 0.24473 0)
(-0.492722 0.255851 0)
(-0.549148 0.258662 0)
(-0.599658 0.253443 0)
(-0.643776 0.240901 0)
(-0.681406 0.221949 0)
(-0.712721 0.19755 0)
(-0.738107 0.168654 0)
(-0.758106 0.136146 0)
(-0.773303 0.10077 0)
(-0.78425 0.0631337 0)
(-0.791446 0.0237815 0)
(-0.79524 -0.0168189 0)
(-0.795756 -0.0582907 0)
(-0.79288 -0.100218 0)
(-0.786189 -0.141979 0)
(-0.774959 -0.182711 0)
(-0.758087 -0.221253 0)
(-0.734194 -0.256023 0)
(-0.701792 -0.284976 0)
(-0.659486 -0.305729 0)
(-0.6063 -0.315851 0)
(-0.542145 -0.313249 0)
(-0.468295 -0.296698 0)
(-0.387661 -0.26644 0)
(-0.304736 -0.224625 0)
(-0.225047 -0.175274 0)
(-0.154065 -0.123622 0)
(-0.0957935 -0.0748568 0)
(-0.0516908 -0.0327733 0)
(-0.0207422 0.000875683 0)
(-0.000739278 0.0259538 0)
(0.0103132 0.0427933 0)
(0.0143179 0.0520162 0)
(0.0132104 0.0544194 0)
(0.00901485 0.0503561 0)
(0.00400151 0.0389287 0)
(0.000362322 0.017493 0)
(0.00046527 -0.0160987 0)
(-0.00257191 -0.0209767 0)
(-0.0122819 -0.006622 0)
(-0.0292292 0.0186538 0)
(-0.0539443 0.0492664 0)
(-0.0871787 0.0828713 0)
(-0.129657 0.119116 0)
(-0.181387 0.157655 0)
(-0.241046 0.196936 0)
(-0.306048 0.234248 0)
(-0.373156 0.266545 0)
(-0.439202 0.291286 0)
(-0.501581 0.306907 0)
(-0.558449 0.312875 0)
(-0.608692 0.309476 0)
(-0.651801 0.297542 0)
(-0.687753 0.278205 0)
(-0.716904 0.252705 0)
(-0.739902 0.222267 0)
(-0.757599 0.188032 0)
(-0.770924 0.150955 0)
(-0.780759 0.111757 0)
(-0.787909 0.0709822 0)
(-0.793038 0.0290266 0)
(-0.79659 -0.0138876 0)
(-0.798798 -0.057626 0)
(-0.799725 -0.102026 0)
(-0.799092 -0.146817 0)
(-0.796255 -0.19157 0)
(-0.790142 -0.235526 0)
(-0.779267 -0.27742 0)
(-0.761707 -0.315398 0)
(-0.735184 -0.347033 0)
(-0.697382 -0.369389 0)
(-0.646467 -0.379287 0)
(-0.581705 -0.373881 0)
(-0.504111 -0.351464 0)
(-0.416957 -0.312294 0)
(-0.325817 -0.259201 0)
(-0.237856 -0.197607 0)
(-0.160267 -0.134591 0)
(-0.0982299 -0.0769956 0)
(-0.0533069 -0.029368 0)
(-0.023573 0.00687537 0)
(-0.00555556 0.0324533 0)
(0.00361837 0.0482968 0)
(0.00646108 0.0552505 0)
(0.00529104 0.0535897 0)
(0.00248827 0.042378 0)
(0.000209312 0.0191577 0)
(-0.00017159 -0.0137896 0)
(-0.00796356 -0.0118363 0)
(-0.0241176 0.0101948 0)
(-0.0484322 0.0434971 0)
(-0.0812251 0.0826314 0)
(-0.123133 0.12538 0)
(-0.174294 0.170813 0)
(-0.233636 0.217335 0)
(-0.298696 0.262095 0)
(-0.366138 0.301641 0)
(-0.432541 0.332912 0)
(-0.494999 0.353893 0)
(-0.551396 0.363779 0)
(-0.60043 0.362794 0)
(-0.64152 0.351878 0)
(-0.674697 0.332408 0)
(-0.700492 0.305961 0)
(-0.719805 0.274118 0)
(-0.733768 0.238337 0)
(-0.743583 0.199842 0)
(-0.750378 0.159545 0)
(-0.755134 0.118066 0)
(-0.758669 0.075798 0)
(-0.761586 0.0329155 0)
(-0.764304 -0.0105701 0)
(-0.767138 -0.0546858 0)
(-0.770241 -0.0994931 0)
(-0.77352 -0.145061 0)
(-0.776628 -0.191344 0)
(-0.778895 -0.238018 0)
(-0.779173 -0.284355 0)
(-0.775667 -0.329094 0)
(-0.765896 -0.370239 0)
(-0.746847 -0.404898 0)
(-0.715291 -0.429375 0)
(-0.668374 -0.439572 0)
(-0.604503 -0.431712 0)
(-0.524358 -0.403375 0)
(-0.431634 -0.354709 0)
(-0.333158 -0.289366 0)
(-0.237971 -0.214561 0)
(-0.155214 -0.139705 0)
(-0.0912418 -0.0736149 0)
(-0.0473969 -0.021527 0)
(-0.0204251 0.0158101 0)
(-0.00546911 0.0401185 0)
(0.001207 0.0527823 0)
(0.00267525 0.0543898 0)
(0.0016065 0.0442037 0)
(0.000183974 0.020169 0)
(-0.00107225 -0.00816989 0)
(-0.014414 0.00339871 0)
(-0.0373639 0.0341333 0)
(-0.0690379 0.0760348 0)
(-0.109492 0.124121 0)
(-0.158981 0.175934 0)
(-0.216763 0.2295 0)
(-0.280678 0.281861 0)
(-0.347456 0.329205 0)
(-0.413482 0.367865 0)
(-0.475528 0.395207 0)
(-0.531151 0.409985 0)
(-0.5788 0.412232 0)
(-0.617778 0.402946 0)
(-0.64814 0.38375 0)
(-0.670572 0.356589 0)
(-0.68622 0.323464 0)
(-0.696479 0.286211 0)
(-0.702785 0.246352 0)
(-0.70644 0.205019 0)
(-0.708514 0.162944 0)
(-0.709837 0.120549 0)
(-0.711006 0.0780088 0)
(-0.712405 0.0353035 0)
(-0.714337 -0.00767201 0)
(-0.717079 -0.0510488 0)
(-0.720763 -0.0950258 0)
(-0.725477 -0.13983 0)
(-0.731241 -0.185626 0)
(-0.737894 -0.232462 0)
(-0.744886 -0.280206 0)
(-0.751079 -0.328342 0)
(-0.754576 -0.375658 0)
(-0.752563 -0.419961 0)
(-0.741304 -0.457899 0)
(-0.716518 -0.48497 0)
(-0.67421 -0.49591 0)
(-0.611858 -0.485664 0)
(-0.529751 -0.450892 0)
(-0.432077 -0.39167 0)
(-0.327163 -0.312791 0)
(-0.226232 -0.223839 0)
(-0.140477 -0.137172 0)
(-0.0771134 -0.0638126 0)
(-0.0365884 -0.00930331 0)
(-0.013779 0.0268097 0)
(-0.00262495 0.0471528 0)
(0.00130438 0.0532538 0)
(0.00144731 0.0450216 0)
(0.000288236 0.0209469 0)
(-0.00217941 0.00130783 0)
(-0.0214252 0.0250166 0)
(-0.051019 0.0650554 0)
(-0.0894972 0.115736 0)
(-0.136546 0.172604 0)
(-0.19181 0.23255 0)
(-0.25359 0.292324 0)
(-0.318883 0.347801 0)
(-0.384018 0.394675 0)
(-0.445477 0.429527 0)
(-0.500455 0.450448 0)
(-0.547092 0.457094 0)
(-0.584508 0.450402 0)
(-0.612728 0.432199 0)
(-0.632551 0.40481 0)
(-0.64534 0.370698 0)
(-0.652743 0.33214 0)
(-0.656421 0.291011 0)
(-0.657826 0.248669 0)
(-0.658082 0.205972 0)
(-0.657976 0.163361 0)
(-0.658007 0.120996 0)
(-0.658446 0.0788443 0)
(-0.659425 0.0367723 0)
(-0.661069 -0.00537479 0)
(-0.663522 -0.0477687 0)
(-0.66687 -0.0906044 0)
(-0.671299 -0.134079 0)
(-0.677047 -0.178406 0)
(-0.684314 -0.223841 0)
(-0.693147 -0.270641 0)
(-0.703278 -0.318901 0)
(-0.713844 -0.368312 0)
(-0.723006 -0.417828 0)
(-0.727653 -0.465219 0)
(-0.72337 -0.506639 0)
(-0.704835 -0.536533 0)
(-0.666795 -0.548172 0)
(-0.605654 -0.53496 0)
(-0.521357 -0.492477 0)
(-0.41887 -0.420877 0)
(-0.308423 -0.326718 0)
(-0.203739 -0.222883 0)
(-0.117975 -0.125394 0)
(-0.0584537 -0.0473701 0)
(-0.0236425 0.00624787 0)
(-0.00618805 0.037765 0)
(0.000680221 0.0503939 0)
(0.0018103 0.0453579 0)
(0.000485839 0.0218747 0)
(-0.00335782 0.0148772 0)
(-0.02835 0.0528162 0)
(-0.0639635 0.102336 0)
(-0.108201 0.161515 0)
(-0.16027 0.226357 0)
(-0.219098 0.292805 0)
(-0.282163 0.356346 0)
(-0.34595 0.412059 0)
(-0.406757 0.455608 0)
(-0.461415 0.484173 0)
(-0.507697 0.496765 0)
(-0.544447 0.494056 0)
(-0.571568 0.477959 0)
(-0.589889 0.451149 0)
(-0.600932 0.416581 0)
(-0.606574 0.377044 0)
(-0.608694 0.334834 0)
(-0.6089 0.291592 0)
(-0.608374 0.248307 0)
(-0.607862 0.205446 0)
(-0.607756 0.163119 0)
(-0.608196 0.121245 0)
(-0.609175 0.0796571 0)
(-0.610632 0.0381793 0)
(-0.612527 -0.00334479 0)
(-0.614897 -0.0450508 0)
(-0.617793 -0.0870451 0)
(-0.621371 -0.129424 0)
(-0.625881 -0.172342 0)
(-0.63165 -0.216043 0)
(-0.63907 -0.260868 0)
(-0.648508 -0.307219 0)
(-0.660061 -0.35547 0)
(-0.673185 -0.405692 0)
(-0.686232 -0.457121 0)
(-0.695973 -0.507473 0)
(-0.697345 -0.552326 0)
(-0.683849 -0.584884 0)
(-0.648852 -0.596585 0)
(-0.587714 -0.578904 0)
(-0.500266 -0.526293 0)
(-0.392717 -0.439521 0)
(-0.27781 -0.328018 0)
(-0.172117 -0.209259 0)
(-0.0902934 -0.103557 0)
(-0.03832 -0.0252652 0)
(-0.0113359 0.0229137 0)
(-0.000153776 0.0453707 0)
(0.00229746 0.0453567 0)
(0.000720677 0.0231573 0)
(-0.00444351 0.0323862 0)
(-0.0345361 0.086133 0)
(-0.0751403 0.144919 0)
(-0.123722 0.211868 0)
(-0.178948 0.283346 0)
(-0.239063 0.354221 0)
(-0.300964 0.418936 0)
(-0.360957 0.472185 0)
(-0.415579 0.509995 0)
(-0.462191 0.530402 0)
(-0.499263 0.533497 0)
(-0.526443 0.521059 0)
(-0.544467 0.496005 0)
(-0.554915 0.461773 0)
(-0.559836 0.421732 0)
(-0.561319 0.3787 0)
(-0.561135 0.334689 0)
(-0.560552 0.290881 0)
(-0.560307 0.247785 0)
(-0.560709 0.205465 0)
(-0.561786 0.163759 0)
(-0.563427 0.122438 0)
(-0.565471 0.0812869 0)
(-0.567769 0.0401423 0)
(-0.570211 -0.00111231 0)
(-0.572796 -0.042542 0)
(-0.575551 -0.084171 0)
(-0.578537 -0.126013 0)
(-0.581909 -0.168118 0)
(-0.585928 -0.210594 0)
(-0.591005 -0.253659 0)
(-0.597684 -0.297707 0)
(-0.606572 -0.343347 0)
(-0.618142 -0.391288 0)
(-0.632303 -0.442004 0)
(-0.647717 -0.495085 0)
(-0.661041 -0.548265 0)
(-0.666518 -0.596402 0)
(-0.656397 -0.631037 0)
(-0.622581 -0.641264 0)
(-0.559482 -0.616335 0)
(-0.467302 -0.549811 0)
(-0.354347 -0.44413 0)
(-0.236691 -0.31337 0)
(-0.133898 -0.181254 0)
(-0.0609066 -0.0724164 0)
(-0.0200553 -0.000194781 0)
(-0.00226762 0.0369476 0)
(0.00247032 0.0446329 0)
(0.000940104 0.0247555 0)
(-0.00528815 0.0532731 0)
(-0.0394224 0.123909 0)
(-0.0836912 0.191432 0)
(-0.134994 0.26506 0)
(-0.191457 0.341491 0)
(-0.250781 0.414571 0)
(-0.30955 0.478007 0)
(-0.364167 0.526501 0)
(-0.411601 0.556753 0)
(-0.449863 0.567857 0)
(-0.478202 0.561101 0)
(-0.497095 0.539411 0)
(-0.508037 0.506626 0)
(-0.513155 0.466732 0)
(-0.514711 0.423187 0)
(-0.514661 0.378513 0)
(-0.514394 0.334192 0)
(-0.51468 0.290838 0)
(-0.515788 0.248491 0)
(-0.517668 0.206911 0)
(-0.520129 0.165785 0)
(-0.522952 0.124844 0)
(-0.525956 0.0838995 0)
(-0.529 0.0428363 0)
(-0.531996 0.00159397 0)
(-0.534948 -0.0398394 0)
(-0.537877 -0.0814477 0)
(-0.540773 -0.123205 0)
(-0.543688 -0.165079 0)
(-0.546741 -0.207055 0)
(-0.550158 -0.249183 0)
(-0.554328 -0.291664 0)
(-0.559869 -0.334945 0)
(-0.567622 -0.379794 0)
(-0.578445 -0.427269 0)
(-0.5927 -0.478355 0)
(-0.609383 -0.533075 0)
(-0.625063 -0.589081 0)
(-0.633168 -0.640177 0)
(-0.624471 -0.675689 0)
(-0.589359 -0.681752 0)
(-0.521683 -0.645173 0)
(-0.422926 -0.559386 0)
(-0.304699 -0.430482 0)
(-0.187308 -0.279819 0)
(-0.0928434 -0.138945 0)
(-0.0339614 -0.035179 0)
(-0.00650203 0.0231785 0)
(0.00201313 0.0423165 0)
(0.00111662 0.0264191 0)
(-0.0057704 0.0766326 0)
(-0.0425966 0.164811 0)
(-0.0890425 0.240328 0)
(-0.1414 0.319319 0)
(-0.197319 0.398896 0)
(-0.254136 0.472058 0)
(-0.308374 0.532113 0)
(-0.356737 0.57411 0)
(-0.39675 0.59566 0)
(-0.42714 0.597064 0)
(-0.447945 0.580865 0)
(-0.460391 0.551079 0)
(-0.466536 0.512265 0)
(-0.468748 0.468629 0)
(-0.469173 0.423379 0)
(-0.469368 0.378471 0)
(-0.4702 0.334743 0)
(-0.471949 0.292265 0)
(-0.474525 0.25073 0)
(-0.477679 0.209739 0)
(-0.481148 0.168957 0)
(-0.484736 0.128162 0)
(-0.488319 0.0872316 0)
(-0.49182 0.0461074 0)
(-0.495203 0.00477283 0)
(-0.498501 -0.036762 0)
(-0.50174 -0.0784735 0)
(-0.504888 -0.120333 0)
(-0.507938 -0.162286 0)
(-0.510889 -0.204265 0)
(-0.513776 -0.246211 0)
(-0.516735 -0.288119 0)
(-0.520108 -0.330139 0)
(-0.524546 -0.372732 0)
(-0.531058 -0.416849 0)
(-0.54086 -0.463944 0)
(-0.5548 -0.515561 0)
(-0.572203 -0.572159 0)
(-0.589379 -0.631127 0)
(-0.598649 -0.684655 0)
(-0.589064 -0.718951 0)
(-0.549595 -0.716463 0)
(-0.474284 -0.661764 0)
(-0.367354 -0.549936 0)
(-0.245342 -0.394028 0)
(-0.133351 -0.226071 0)
(-0.0540417 -0.0858251 0)
(-0.0133492 0.00164544 0)
(0.000773982 0.0372267 0)
(0.00125407 0.0277892 0)
(-0.00581468 0.101331 0)
(-0.0438261 0.207358 0)
(-0.0909304 0.290031 0)
(-0.142772 0.372994 0)
(-0.196625 0.453976 0)
(-0.249654 0.52538 0)
(-0.298523 0.580433 0)
(-0.340369 0.6148 0)
(-0.373338 0.627182 0)
(-0.396874 0.619165 0)
(-0.411727 0.594525 0)
(-0.419695 0.558197 0)
(-0.423122 0.515163 0)
(-0.424311 0.469503 0)
(-0.425036 0.423883 0)
(-0.426335 0.379562 0)
(-0.428569 0.336752 0)
(-0.431652 0.295114 0)
(-0.435302 0.254158 0)
(-0.439224 0.213467 0)
(-0.443201 0.172774 0)
(-0.447116 0.131944 0)
(-0.450927 0.0909227 0)
(-0.454624 0.0496987 0)
(-0.458212 0.00827517 0)
(-0.461751 -0.0333375 0)
(-0.46528 -0.0751247 0)
(-0.468774 -0.117077 0)
(-0.472205 -0.159159 0)
(-0.475524 -0.201312 0)
(-0.478666 -0.243448 0)
(-0.481585 -0.285456 0)
(-0.484324 -0.327263 0)
(-0.487136 -0.368961 0)
(-0.490665 -0.411027 0)
(-0.496084 -0.454598 0)
(-0.504977 -0.501583 0)
(-0.518649 -0.554181 0)
(-0.536627 -0.613245 0)
(-0.554666 -0.675436 0)
(-0.563512 -0.730326 0)
(-0.550184 -0.759789 0)
(-0.502643 -0.741971 0)
(-0.416574 -0.660318 0)
(-0.30109 -0.515052 0)
(-0.179336 -0.331224 0)
(-0.0805215 -0.154852 0)
(-0.0231574 -0.0304523 0)
(-0.00128064 0.0280316 0)
(0.00137188 0.0284886 0)
(-0.00539773 0.126126 0)
(-0.0430547 0.250044 0)
(-0.0893739 0.33905 0)
(-0.139319 0.424663 0)
(-0.189907 0.505526 0)
(-0.238299 0.573729 0)
(-0.281445 0.622692 0)
(-0.316989 0.648897 0)
(-0.3437 0.652243 0)
(-0.361672 0.635609 0)
(-0.372215 0.60388 0)
(-0.377459 0.562661 0)
(-0.37976 0.517026 0)
(-0.381115 0.470627 0)
(-0.382808 0.425427 0)
(-0.385369 0.381983 0)
(-0.388781 0.340013 0)
(-0.392761 0.298943 0)
(-0.396985 0.25825 0)
(-0.401216 0.217594 0)
(-0.40533 0.176813 0)
(-0.409296 0.135854 0)
(-0.41314 0.0947187 0)
(-0.416891 0.0534159 0)
(-0.420574 0.0119509 0)
(-0.42426 -0.0296761 0)
(-0.428001 -0.0714642 0)
(-0.431781 -0.113428 0)
(-0.435578 -0.155561 0)
(-0.439346 -0.197839 0)
(-0.443006 -0.2402 0)
(-0.446444 -0.282533 0)
(-0.449535 -0.324684 0)
(-0.452219 -0.366508 0)
(-0.454667 -0.408026 0)
(-0.457522 -0.449733 0)
(-0.462124 -0.493021 0)
(-0.47044 -0.540389 0)
(-0.484204 -0.594783 0)
(-0.502905 -0.657227 0)
(-0.521167 -0.722781 0)
(-0.52748 -0.776809 0)
(-0.506707 -0.795293 0)
(-0.446886 -0.752094 0)
(-0.347733 -0.632559 0)
(-0.225992 -0.448191 0)
(-0.112347 -0.242567 0)
(-0.0364035 -0.0761133 0)
(-0.00422439 0.0132296 0)
(0.00146149 0.0281077 0)
(-0.00454418 0.149776 0)
(-0.0403748 0.29143 0)
(-0.0846149 0.386064 0)
(-0.131524 0.47318 0)
(-0.177974 0.55271 0)
(-0.221259 0.616716 0)
(-0.258706 0.659028 0)
(-0.288481 0.677075 0)
(-0.309925 0.671988 0)
(-0.323659 0.647868 0)
(-0.331351 0.610513 0)
(-0.335224 0.56591 0)
(-0.337422 0.518926 0)
(-0.33951 0.47259 0)
(-0.342283 0.428124 0)
(-0.345877 0.385493 0)
(-0.350055 0.344093 0)
(-0.354484 0.303273 0)
(-0.358897 0.26258 0)
(-0.363154 0.221791 0)
(-0.367221 0.180842 0)
(-0.371134 0.139742 0)
(-0.374954 0.0985148 0)
(-0.378723 0.0571754 0)
(-0.382467 0.0157184 0)
(-0.386253 -0.0258688 0)
(-0.390141 -0.0675973 0)
(-0.394121 -0.1095 0)
(-0.398178 -0.151593 0)
(-0.40229 -0.193885 0)
(-0.406402 -0.236357 0)
(-0.410412 -0.278947 0)
(-0.414163 -0.321529 0)
(-0.417466 -0.363897 0)
(-0.420174 -0.405826 0)
(-0.422382 -0.447268 0)
(-0.424752 -0.488786 0)
(-0.428858 -0.532153 0)
(-0.437106 -0.580667 0)
(-0.45156 -0.6381 0)
(-0.471192 -0.705106 0)
(-0.488608 -0.773493 0)
(-0.489287 -0.82205 0)
(-0.456331 -0.819436 0)
(-0.380128 -0.737024 0)
(-0.267995 -0.568474 0)
(-0.146951 -0.346018 0)
(-0.0534047 -0.137553 0)
(-0.00822329 -0.00881313 0)
(0.00147491 0.0261902 0)
(-0.00331662 0.171141 0)
(-0.0359886 0.33022 0)
(-0.0770461 0.429963 0)
(-0.120031 0.517686 0)
(-0.161769 0.595023 0)
(-0.199778 0.654284 0)
(-0.231805 0.689857 0)
(-0.256511 0.700181 0)
(-0.273713 0.687581 0)
(-0.284396 0.657242 0)
(-0.290385 0.615642 0)
(-0.293789 0.568875 0)
(-0.296408 0.521383 0)
(-0.299354 0.475495 0)
(-0.303017 0.43176 0)
(-0.307284 0.389708 0)
(-0.31184 0.348577 0)
(-0.316394 0.307754 0)
(-0.320776 0.266902 0)
(-0.324938 0.225913 0)
(-0.328913 0.184792 0)
(-0.332768 0.14358 0)
(-0.336575 0.102304 0)
(-0.340377 0.0609698 0)
(-0.344186 0.019558 0)
(-0.34806 -0.0219562 0)
(-0.352062 -0.0635915 0)
(-0.356189 -0.105393 0)
(-0.360424 -0.14739 0)
(-0.364762 -0.189611 0)
(-0.369176 -0.232073 0)
(-0.373603 -0.274767 0)
(-0.377928 -0.317632 0)
(-0.381963 -0.360517 0)
(-0.385457 -0.403161 0)
(-0.388186 -0.445247 0)
(-0.390197 -0.486676 0)
(-0.392247 -0.528175 0)
(-0.396244 -0.572148 0)
(-0.405102 -0.623002 0)
(-0.420982 -0.685255 0)
(-0.441493 -0.757911 0)
(-0.455955 -0.826719 0)
(-0.446349 -0.860866 0)
(-0.395719 -0.821518 0)
(-0.300794 -0.683219 0)
(-0.180786 -0.459529 0)
(-0.0736129 -0.215125 0)
(-0.0135241 -0.0398828 0)
(0.00139049 0.0222552 0)
(-0.00180397 0.189238 0)
(-0.0301672 0.365298 0)
(-0.067141 0.469862 0)
(-0.105551 0.557582 0)
(-0.142248 0.632227 0)
(-0.175026 0.686599 0)
(-0.202057 0.715739 0)
(-0.222432 0.719084 0)
(-0.236326 0.700061 0)
(-0.244918 0.664757 0)
(-0.250006 0.620093 0)
(-0.253451 0.57205 0)
(-0.256655 0.524531 0)
(-0.260332 0.479183 0)
(-0.264588 0.436011 0)
(-0.269192 0.394272 0)
(-0.273845 0.35317 0)
(-0.27834 0.312189 0)
(-0.282599 0.271116 0)
(-0.286644 0.229928 0)
(-0.290539 0.188672 0)
(-0.294362 0.147394 0)
(-0.298182 0.106111 0)
(-0.302034 0.064816 0)
(-0.305918 0.0234754 0)
(-0.309878 -0.0179458 0)
(-0.313987 -0.0594702 0)
(-0.318242 -0.101152 0)
(-0.32262 -0.143028 0)
(-0.327123 -0.185136 0)
(-0.331739 -0.227515 0)
(-0.336438 -0.27019 0)
(-0.341153 -0.313161 0)
(-0.345755 -0.356363 0)
(-0.350024 -0.399612 0)
(-0.353652 -0.442568 0)
(-0.356352 -0.484815 0)
(-0.358174 -0.526252 0)
(-0.36008 -0.567973 0)
(-0.364489 -0.613428 0)
(-0.374851 -0.668495 0)
(-0.392853 -0.737853 0)
(-0.41331 -0.816183 0)
(-0.42086 -0.878802 0)
(-0.394626 -0.882591 0)
(-0.321495 -0.784923 0)
(-0.210284 -0.576038 0)
(-0.0954281 -0.306791 0)
(-0.0203511 -0.0816566 0)
(0.00125062 0.0158189 0)
(-0.000110399 0.203292 0)
(-0.0232171 0.395739 0)
(-0.0553972 0.505088 0)
(-0.0887839 0.592491 0)
(-0.120297 0.664275 0)
(-0.148022 0.713958 0)
(-0.17053 0.737271 0)
(-0.187266 0.734581 0)
(-0.198626 0.710275 0)
(-0.205831 0.671143 0)
(-0.210517 0.624348 0)
(-0.214217 0.575615 0)
(-0.217955 0.528281 0)
(-0.222134 0.483398 0)
(-0.226696 0.440575 0)
(-0.231384 0.398927 0)
(-0.235962 0.3577 0)
(-0.240312 0.316496 0)
(-0.244426 0.275202 0)
(-0.248365 0.233852 0)
(-0.252203 0.192509 0)
(-0.256014 0.151208 0)
(-0.259857 0.109954 0)
(-0.263763 0.0687242 0)
(-0.267724 0.0274758 0)
(-0.271766 -0.0138357 0)
(-0.275978 -0.0552343 0)
(-0.280362 -0.0967844 0)
(-0.284881 -0.138526 0)
(-0.289538 -0.180504 0)
(-0.294326 -0.222765 0)
(-0.299231 -0.265355 0)
(-0.304216 -0.308312 0)
(-0.309209 -0.351638 0)
(-0.314062 -0.395254 0)
(-0.318518 -0.438921 0)
(-0.32221 -0.482192 0)
(-0.324809 -0.524549 0)
(-0.326454 -0.566005 0)
(-0.328502 -0.608416 0)
(-0.334098 -0.656919 0)
(-0.347055 -0.719053 0)
(-0.367374 -0.797748 0)
(-0.38499 -0.878344 0)
(-0.379102 -0.920246 0)
(-0.32916 -0.868475 0)
(-0.23269 -0.68853 0)
(-0.116694 -0.408555 0)
(-0.0287048 -0.135284 0)
(0.00111774 0.00636954 0)
(0.0016544 0.212742 0)
(-0.0154547 0.420811 0)
(-0.0422972 0.53515 0)
(-0.0703744 0.622204 0)
(-0.0966885 0.691244 0)
(-0.1196 0.736712 0)
(-0.138042 0.755013 0)
(-0.151724 0.747334 0)
(-0.161142 0.71885 0)
(-0.167433 0.676868 0)
(-0.171978 0.628635 0)
(-0.175961 0.579558 0)
(-0.18008 0.532448 0)
(-0.184525 0.487886 0)
(-0.189161 0.445217 0)
(-0.193763 0.403506 0)
(-0.198174 0.362081 0)
(-0.202346 0.320645 0)
(-0.206317 0.279165 0)
(-0.210161 0.237702 0)
(-0.213951 0.196315 0)
(-0.217749 0.155028 0)
(-0.221608 0.11383 0)
(-0.225559 0.0726897 0)
(-0.229587 0.0315547 0)
(-0.233702 -0.00962727 0)
(-0.238013 -0.0508806 0)
(-0.242533 -0.0922821 0)
(-0.247204 -0.133876 0)
(-0.252029 -0.175711 0)
(-0.257001 -0.217838 0)
(-0.262107 -0.260311 0)
(-0.267328 -0.303188 0)
(-0.272624 -0.346515 0)
(-0.277906 -0.390293 0)
(-0.283001 -0.434407 0)
(-0.2876 -0.478525 0)
(-0.29128 -0.522054 0)
(-0.293711 -0.564406 0)
(-0.295272 -0.605995 0)
(-0.298001 -0.650142 0)
(-0.305938 -0.704484 0)
(-0.322541 -0.777513 0)
(-0.343846 -0.865737 0)
(-0.352702 -0.937214 0)
(-0.324598 -0.931484 0)
(-0.246487 -0.791134 0)
(-0.135357 -0.515369 0)
(-0.0381953 -0.200537 0)
(0.000969348 -0.00656239 0)
(0.00338447 0.217279 0)
(-0.00718913 0.439928 0)
(-0.0282895 0.559702 0)
(-0.0508853 0.646633 0)
(-0.0720607 0.71328 0)
(-0.0904106 0.755204 0)
(-0.105184 0.769441 0)
(-0.116268 0.757851 0)
(-0.124161 0.726216 0)
(-0.129821 0.682194 0)
(-0.134323 0.633018 0)
(-0.138517 0.583771 0)
(-0.142839 0.536832 0)
(-0.147344 0.492436 0)
(-0.151887 0.449773 0)
(-0.156299 0.407913 0)
(-0.160494 0.36627 0)
(-0.164474 0.324632 0)
(-0.168301 0.28301 0)
(-0.172048 0.241479 0)
(-0.175782 0.200088 0)
(-0.179553 0.158844 0)
(-0.18341 0.117726 0)
(-0.187387 0.0766965 0)
(-0.191469 0.0356999 0)
(-0.19564 -0.00532581 0)
(-0.20004 -0.0464077 0)
(-0.204702 -0.0876351 0)
(-0.209539 -0.129059 0)
(-0.214554 -0.170732 0)
(-0.219735 -0.212708 0)
(-0.225071 -0.255044 0)
(-0.230546 -0.297807 0)
(-0.236135 -0.341066 0)
(-0.241785 -0.384875 0)
(-0.247386 -0.429215 0)
(-0.252721 -0.473898 0)
(-0.257422 -0.518442 0)
(-0.261012 -0.562079 0)
(-0.263259 -0.6043 0)
(-0.265038 -0.646518 0)
(-0.269437 -0.694674 0)
(-0.28124 -0.759447 0)
(-0.301643 -0.846935 0)
(-0.319394 -0.937885 0)
(-0.309846 -0.974022 0)
(-0.251427 -0.879734 0)
(-0.149935 -0.6221 0)
(-0.0480912 -0.275653 0)
(0.000665 -0.023422 0)
(0.00493832 0.216713 0)
(0.00127454 0.452748 0)
(-0.0137735 0.578487 0)
(-0.0307975 0.665766 0)
(-0.0469274 0.730547 0)
(-0.0609419 0.769734 0)
(-0.0723552 0.780928 0)
(-0.0811668 0.766493 0)
(-0.0877998 0.73264 0)
(-0.0929709 0.68724 0)
(-0.0974312 0.637462 0)
(-0.101725 0.588116 0)
(-0.106084 0.541254 0)
(-0.110493 0.49689 0)
(-0.114826 0.454133 0)
(-0.118982 0.412089 0)
(-0.122929 0.370244 0)
(-0.126705 0.328446 0)
(-0.130376 0.286731 0)
(-0.134012 0.245172 0)
(-0.13767 0.203808 0)
(-0.141391 0.162633 0)
(-0.145222 0.121618 0)
(-0.149203 0.0807241 0)
(-0.153322 0.039896 0)
(-0.157533 -0.000935765 0)
(-0.162007 -0.041816 0)
(-0.166812 -0.0828337 0)
(-0.171828 -0.124058 0)
(-0.177051 -0.165542 0)
(-0.18247 -0.207343 0)
(-0.188072 -0.249519 0)
(-0.19384 -0.29214 0)
(-0.199755 -0.335288 0)
(-0.205781 -0.379047 0)
(-0.211847 -0.423466 0)
(-0.217807 -0.468473 0)
(-0.223383 -0.513747 0)
(-0.228137 -0.558585 0)
(-0.231587 -0.602078 0)
(-0.233781 -0.644212 0)
(-0.236504 -0.688591 0)
(-0.244196 -0.745269 0)
(-0.26124 -0.826617 0)
(-0.282823 -0.927222 0)
(-0.287551 -0.998028 0)
(-0.248278 -0.952083 0)
(-0.159691 -0.724249 0)
(-0.0575587 -0.357868 0)
(-4.95924e-06 -0.0446353 0)
(0.00616096 0.211275 0)
(0.00957321 0.458828 0)
(0.000925942 0.591414 0)
(-0.0105115 0.679611 0)
(-0.0216951 0.743198 0)
(-0.0315498 0.780532 0)
(-0.039817 0.78973 0)
(-0.0465582 0.773483 0)
(-0.0520707 0.738259 0)
(-0.0567986 0.692031 0)
(-0.061167 0.641893 0)
(-0.0654452 0.592457 0)
(-0.069709 0.545574 0)
(-0.073905 0.501134 0)
(-0.0779507 0.458226 0)
(-0.081803 0.415995 0)
(-0.085477 0.373983 0)
(-0.0890272 0.332071 0)
(-0.0925209 0.290307 0)
(-0.0960198 0.248758 0)
(-0.0995734 0.20745 0)
(-0.10322 0.166371 0)