/*--------------------------------*- C++ -*----------------------------------*\
  =========                 |
  \\      /  F ield         | OpenFOAM: The Open Source CFD Toolbox
   \\    /   O peration     | Website:  https://openfoam.org
    \\  /    A nd           | Version:  7
     \\/     M anipulation  |
\*---------------------------------------------------------------------------*/
FoamFile
{
    version     2.0;
    format      ascii;
    class       volScalarField;
    location    "500";
    object      p;
}
// * * * * * * * * * * * * * * * * * * * * * * * * * * * * * * * * * * * * * //

dimensions      [0 2 -2 0 0 0 0];

internalField   nonuniform List<scalar> 
2500
(
1.20728e-06
-8.43325e-05
-0.00040119
-0.000946488
-0.00165645
-0.00248282
-0.00339412
-0.00436982
-0.00539576
-0.00646009
-0.00754993
-0.00864906
-0.00973665
-0.0107868
-0.0117686
-0.0126472
-0.0133852
-0.0139445
-0.0142886
-0.0143862
-0.014214
-0.0137604
-0.0130288
-0.0120402
-0.0108347
-0.00947199
-0.00802921
-0.00659832
-0.00528048
-0.00417901
-0.00339131
-0.00300041
-0.00306712
-0.00362384
-0.00467083
-0.00617546
-0.00807478
-0.0102812
-0.0126905
-0.0151906
-0.0176697
-0.0200247
-0.0221659
-0.0240204
-0.0255319
-0.0266608
-0.0273842
-0.0276978
-0.0276374
-0.0273921
8.70154e-05
-5.38438e-06
-0.000295098
-0.000782978
-0.00141708
-0.00215878
-0.00298292
-0.00387257
-0.00481544
-0.00580087
-0.0068172
-0.00784986
-0.0088803
-0.00988541
-0.0108376
-0.0117055
-0.0124549
-0.0130503
-0.0134577
-0.0136464
-0.0135928
-0.0132837
-0.0127192
-0.0119154
-0.0109069
-0.00974637
-0.00850383
-0.00726385
-0.0061205
-0.00517063
-0.0045061
-0.00420548
-0.00432641
-0.00489946
-0.00592441
-0.00736966
-0.00917489
-0.0112565
-0.0135153
-0.0158463
-0.018146
-0.0203204
-0.0222896
-0.0239911
-0.0253789
-0.0264231
-0.0271085
-0.0274289
-0.0273916
-0.0271455
0.000415573
0.000273576
-3.00663e-05
-0.000489523
-0.00106759
-0.00173768
-0.00248299
-0.00329239
-0.0041577
-0.00507135
-0.00602438
-0.00700496
-0.00799744
-0.00898179
-0.00993351
-0.0108239
-0.0116208
-0.01229
-0.0127972
-0.0131106
-0.0132036
-0.0130588
-0.0126709
-0.0120502
-0.0112247
-0.0102413
-0.00916419
-0.00807321
-0.00705865
-0.00621472
-0.00563166
-0.00538736
-0.00553941
-0.00611867
-0.00712538
-0.00852847
-0.0102683
-0.0122624
-0.0144136
-0.0166196
-0.0187819
-0.0208125
-0.0226395
-0.0242095
-0.0254868
-0.0264514
-0.0270945
-0.0274061
-0.0273628
-0.0270883
0.000997201
0.000761492
0.000397565
-7.22946e-05
-0.00062867
-0.00125789
-0.00195233
-0.00270837
-0.00352383
-0.00439604
-0.00532015
-0.00628799
-0.00728715
-0.00830031
-0.00930497
-0.0102734
-0.0111732
-0.0119685
-0.0126215
-0.0130957
-0.0133587
-0.0133862
-0.0131662
-0.0127019
-0.0120157
-0.0111501
-0.0101667
-0.00914405
-0.00817335
-0.00735112
-0.00677123
-0.00651587
-0.00664696
-0.0071991
-0.00817508
-0.00954489
-0.0112483
-0.0132013
-0.0153044
-0.0174534
-0.0195487
-0.0215041
-0.0232513
-0.0247423
-0.025949
-0.0268586
-0.0274678
-0.0277643
-0.0277083
-0.027415
0.00176276
0.00139831
0.000939901
0.000433091
-0.000125453
-0.000737359
-0.00140555
-0.00213514
-0.00293129
-0.00379733
-0.0047335
-0.00573584
-0.00679529
-0.00789682
-0.00901883
-0.0101329
-0.0112039
-0.0121915
-0.0130519
-0.0137406
-0.0142168
-0.0144472
-0.014411
-0.014104
-0.013542
-0.0127644
-0.0118308
-0.0108205
-0.00982779
-0.00895438
-0.00830121
-0.00795868
-0.00799715
-0.00845901
-0.00935321
-0.0106535
-0.0123009
-0.0142097
-0.016277
-0.0183939
-0.0204568
-0.0223766
-0.0240846
-0.0255353
-0.0267049
-0.0275859
-0.02818
-0.028477
-0.0284342
-0.0281588
0.00263465
0.00211626
0.00154018
0.00097839
0.00039948
-0.000216361
-0.000884075
-0.00161861
-0.00243328
-0.00333815
-0.00433903
-0.00543648
-0.00662457
-0.00788985
-0.00921025
-0.0105547
-0.011883
-0.0131477
-0.0142958
-0.0152723
-0.0160253
-0.0165103
-0.0166963
-0.0165694
-0.0161379
-0.0154375
-0.0145256
-0.0134823
-0.0124056
-0.0114041
-0.0105887
-0.0100614
-0.00990583
-0.0101771
-0.0108958
-0.0120445
-0.0135691
-0.0153852
-0.0173874
-0.0194617
-0.0214977
-0.0234
-0.0250959
-0.0265378
-0.0277028
-0.0285862
-0.0291934
-0.0295184
-0.0295237
-0.0293057
0.00352793
0.00283917
0.00213083
0.00150163
0.000886583
0.000244783
-0.000452203
-0.00123004
-0.00211076
-0.00311161
-0.00424422
-0.00551355
-0.00691635
-0.00843964
-0.0100593
-0.0117393
-0.0134322
-0.0150803
-0.0166187
-0.0179795
-0.0190968
-0.0199127
-0.0203833
-0.0204831
-0.0202104
-0.0195944
-0.0186888
-0.0175733
-0.0163489
-0.0151321
-0.0140456
-0.0132071
-0.0127184
-0.0126545
-0.0130547
-0.0139177
-0.0152016
-0.0168283
-0.0186932
-0.0206778
-0.0226643
-0.0245477
-0.0262463
-0.0277057
-0.0288988
-0.02982
-0.030475
-0.0308616
-0.0309507
-0.030824
0.00434704
0.00347903
0.00263069
0.00192541
0.00125927
0.000567425
-0.00019344
-0.00106045
-0.00206483
-0.00323121
-0.00457711
-0.00611155
-0.0078332
-0.00972825
-0.0117687
-0.0139116
-0.0160992
-0.0182614
-0.0203188
-0.0221876
-0.0237854
-0.0250378
-0.0258851
-0.0262868
-0.0262275
-0.0257258
-0.0248284
-0.0236115
-0.0221775
-0.0206502
-0.0191653
-0.0178598
-0.0168598
-0.0162676
-0.0161511
-0.0165357
-0.0174012
-0.0186846
-0.0202882
-0.0220925
-0.0239719
-0.0258094
-0.0275094
-0.0290043
-0.0302561
-0.0312519
-0.0319933
-0.0324784
-0.0326855
-0.0326776
0.00498595
0.00393637
0.00294546
0.00215754
0.00142463
0.000655453
-0.000209403
-0.00121921
-0.00241475
-0.00382825
-0.00548297
-0.00739158
-0.0095537
-0.0119533
-0.0145566
-0.0173116
-0.0201481
-0.0229809
-0.0257135
-0.0282434
-0.0304688
-0.0322954
-0.0336435
-0.0344539
-0.0346926
-0.0343622
-0.0334976
-0.0321671
-0.0304712
-0.0285384
-0.0265178
-0.0245678
-0.0228441
-0.0214851
-0.0205981
-0.0202482
-0.0204506
-0.0211702
-0.0223263
-0.023805
-0.0254752
-0.0272059
-0.0288824
-0.0304167
-0.0317514
-0.0328575
-0.0337251
-0.0343468
-0.0347043
-0.0348379
0.00532991
0.00410221
0.00297007
0.00209343
0.001276
0.00039816
-0.00061665
-0.00183045
-0.00329394
-0.0050471
-0.00711882
-0.00952487
-0.0122648
-0.0153189
-0.018646
-0.0221827
-0.0258443
-0.0295282
-0.0331178
-0.0364892
-0.0395176
-0.042085
-0.0440879
-0.0454435
-0.0460945
-0.0460214
-0.0452421
-0.043811
-0.0418215
-0.0394031
-0.0367153
-0.0339383
-0.0312603
-0.0288629
-0.0269042
-0.0255036
-0.0247293
-0.024591
-0.0250408
-0.0259817
-0.0272835
-0.0288015
-0.0303972
-0.0319533
-0.0333827
-0.0346292
-0.0356611
-0.0364573
-0.036996
-0.0372911
0.00525871
0.00386157
0.00259233
0.0016202
0.000697568
-0.000324708
-0.00154106
-0.00302678
-0.0048429
-0.00703732
-0.00964442
-0.0126825
-0.01615
-0.0200221
-0.0242483
-0.028752
-0.0334316
-0.0381643
-0.042811
-0.0472228
-0.0512486
-0.054743
-0.0575746
-0.0596331
-0.0608341
-0.0611305
-0.0605185
-0.0590318
-0.0567506
-0.0537992
-0.0503419
-0.0465762
-0.0427224
-0.0390083
-0.0356516
-0.0328404
-0.0307147
-0.0293513
-0.0287569
-0.0288702
-0.0295739
-0.0307148
-0.0321276
-0.0336568
-0.035173
-0.0365794
-0.0378089
-0.0388153
-0.0395657
-0.0400416
0.00465145
0.00309822
0.00169803
0.00062219
-0.000429549
-0.00163616
-0.00311035
-0.00494113
-0.00720021
-0.0099436
-0.013211
-0.0170225
-0.0213744
-0.0262352
-0.0315432
-0.0372061
-0.0431029
-0.0490877
-0.0549956
-0.0606498
-0.0658694
-0.0704787
-0.0743157
-0.0772401
-0.0791383
-0.079933
-0.0795953
-0.0781319
-0.0756039
-0.0721223
-0.0678474
-0.0629855
-0.0577813
-0.0525057
-0.0474383
-0.0428461
-0.0389587
-0.0359446
-0.0338931
-0.0328056
-0.0325998
-0.0331262
-0.0341951
-0.0356058
-0.0371727
-0.0387413
-0.0401929
-0.0414422
-0.0424346
-0.0431125
0.0033925
0.00170076
0.000177242
-0.00101219
-0.00221987
-0.00365392
-0.00544536
-0.00769719
-0.0104921
-0.0138942
-0.0179483
-0.0226755
-0.0280684
-0.034087
-0.0406559
-0.0476646
-0.0549693
-0.0623977
-0.0697557
-0.0768355
-0.0834242
-0.0893142
-0.0943123
-0.0982485
-0.100981
-0.102402
-0.102457
-0.101124
-0.0984386
-0.094491
-0.0894263
-0.083446
-0.0768055
-0.0698062
-0.0627825
-0.0560808
-0.0500315
-0.0449174
-0.0409418
-0.0382045
-0.0366914
-0.0362816
-0.0367727
-0.0379167
-0.0394587
-0.0411677
-0.0428531
-0.0443729
-0.0456377
-0.0465421
0.00137822
-0.000430699
-0.00206869
-0.00338303
-0.00477547
-0.00648166
-0.00865057
-0.0113992
-0.0148213
-0.0189891
-0.0239516
-0.0297298
-0.0363109
-0.0436437
-0.0516363
-0.0601561
-0.0690327
-0.0780638
-0.0870228
-0.0956684
-0.103755
-0.111044
-0.117312
-0.122364
-0.126032
-0.128184
-0.128745
-0.127662
-0.124944
-0.120654
-0.114911
-0.107897
-0.0998565
-0.0911013
-0.0820007
-0.0729673
-0.064431
-0.0568015
-0.050425
-0.0455401
-0.042246
-0.0404905
-0.0400852
-0.0407438
-0.0421342
-0.0439291
-0.045842
-0.0476524
-0.0492209
-0.0503805
-0.00147608
-0.00337757
-0.00512
-0.00657126
-0.00817785
-0.0102004
-0.012805
-0.0161223
-0.0202569
-0.0252885
-0.0312694
-0.0382185
-0.0461151
-0.0548936
-0.0644415
-0.0745998
-0.0851675
-0.095908
-0.10656
-0.116847
-0.126492
-0.135227
-0.142807
-0.149015
-0.153666
-0.15661
-0.157757
-0.157036
-0.154427
-0.149961
-0.143726
-0.135867
-0.126599
-0.116214
-0.105088
-0.0936696
-0.0824686
-0.0720174
-0.0628209
-0.0552937
-0.0497005
-0.0461141
-0.0444064
-0.0442796
-0.0453279
-0.0471114
-0.0492213
-0.0513327
-0.0532354
-0.0546827
-0.00522971
-0.00719637
-0.00903178
-0.0106316
-0.0124805
-0.0148605
-0.0179537
-0.0219036
-0.0268249
-0.0328036
-0.0398935
-0.0481091
-0.0574183
-0.0677371
-0.0789276
-0.0907999
-0.103117
-0.115606
-0.127968
-0.139894
-0.151076
-0.161224
-0.170077
-0.177407
-0.18302
-0.186761
-0.18853
-0.188251
-0.185879
-0.18142
-0.174923
-0.166488
-0.156283
-0.144553
-0.131641
-0.117993
-0.104158
-0.0907642
-0.0784678
-0.0678812
-0.0594833
-0.0535384
-0.050047
-0.0487506
-0.0491923
-0.0508142
-0.0530596
-0.0554676
-0.0577335
-0.0595041
-0.00991124
-0.0119133
-0.0138285
-0.0155868
-0.0177027
-0.0204757
-0.0241018
-0.0287362
-0.0345021
-0.0414904
-0.0497539
-0.0592994
-0.0700792
-0.0819864
-0.0948527
-0.108452
-0.12251
-0.136711
-0.150722
-0.164201
-0.176817
-0.188265
-0.198275
-0.206619
-0.213108
-0.217589
-0.219961
-0.220159
-0.21812
-0.213831
-0.207308
-0.198604
-0.187825
-0.175151
-0.160858
-0.145343
-0.129142
-0.112925
-0.0974648
-0.0835637
-0.0719454
-0.0631306
-0.0573316
-0.0544073
-0.0539008
-0.0551491
-0.0574288
-0.0601102
-0.0627632
-0.0648945
-0.0155147
-0.0175205
-0.0195002
-0.0214237
-0.0238258
-0.027019
-0.0312105
-0.0365654
-0.0432136
-0.0512481
-0.060718
-0.0716183
-0.0838818
-0.0973732
-0.11189
-0.127165
-0.142883
-0.15869
-0.174214
-0.18909
-0.202969
-0.215538
-0.226529
-0.235723
-0.242946
-0.248058
-0.250966
-0.251625
-0.249967
-0.245969
-0.239622
-0.230937
-0.219961
-0.206798
-0.191633
-0.174775
-0.156689
-0.138022
-0.119596
-0.102362
-0.087282
-0.0751787
-0.0665609
-0.0615056
-0.0596391
-0.0602355
-0.062402
-0.0653084
-0.0683636
-0.0708928
-0.0219979
-0.0239744
-0.0260006
-0.0280915
-0.0307916
-0.0344212
-0.0391963
-0.0452888
-0.052833
-0.0619211
-0.0725949
-0.0848339
-0.0985466
-0.113566
-0.129649
-0.146489
-0.163727
-0.18097
-0.197817
-0.213881
-0.228804
-0.242274
-0.254035
-0.263883
-0.271667
-0.27727
-0.28061
-0.281672
-0.280394
-0.276751
-0.270721
-0.262285
-0.251443
-0.238223
-0.222716
-0.205117
-0.185773
-0.16524
-0.144309
-0.123997
-0.10546
-0.089825
-0.0779628
-0.0702769
-0.0665908
-0.0661947
-0.0680488
-0.071101
-0.0745607
-0.0775218
-0.0292828
-0.0311962
-0.0332482
-0.0355026
-0.0385033
-0.0425732
-0.0479333
-0.0547599
-0.063188
-0.0733063
-0.0851454
-0.0986656
-0.113748
-0.130189
-0.147706
-0.16595
-0.18452
-0.202989
-0.220933
-0.237948
-0.253677
-0.267817
-0.280126
-0.290427
-0.298594
-0.304536
-0.308192
-0.309571
-0.308631
-0.305351
-0.299708
-0.291671
-0.281204
-0.268278
-0.252898
-0.235142
-0.215215
-0.193527
-0.170756
-0.147886
-0.126175
-0.107007
-0.0916372
-0.0808893
-0.0749152
-0.0731376
-0.0744293
-0.077513
-0.0813625
-0.0847827
-0.0372585
-0.039075
-0.0411288
-0.043536
-0.0468297
-0.0513299
-0.0572591
-0.0647943
-0.0740684
-0.0851628
-0.0980942
-0.112801
-0.129132
-0.14685
-0.16563
-0.185081
-0.204767
-0.224233
-0.243034
-0.260762
-0.277064
-0.291652
-0.304308
-0.314877
-0.323262
-0.329402
-0.33326
-0.334861
-0.334191
-0.33124
-0.325994
-0.318419
-0.308465
-0.296068
-0.281169
-0.263742
-0.243855
-0.221742
-0.197903
-0.173194
-0.148853
-0.126424
-0.107509
-0.0934052
-0.0847181
-0.0811494
-0.0815846
-0.0845487
-0.0887527
-0.0926499
-0.0457858
-0.0474723
-0.0495011
-0.0520432
-0.0556111
-0.0605172
-0.0669819
-0.0751791
-0.0852363
-0.0972249
-0.111145
-0.12691
-0.14434
-0.163159
-0.183005
-0.20345
-0.224027
-0.244257
-0.263686
-0.281906
-0.298574
-0.31342
-0.32625
-0.336936
-0.345408
-0.351629
-0.355586
-0.357322
-0.356846
-0.354164
-0.349276
-0.342158
-0.332761
-0.321008
-0.306803
-0.290049
-0.270693
-0.248801
-0.224664
-0.19893
-0.172699
-0.147539
-0.125302
-0.107744
-0.0960212
-0.0902687
-0.0895256
-0.0921841
-0.0966846
-0.101065
-0.0547041
-0.0562293
-0.0582038
-0.060855
-0.0646673
-0.069941
-0.0768904
-0.0856832
-0.0964384
-0.109215
-0.123995
-0.140668
-0.159023
-0.17875
-0.199455
-0.220676
-0.241922
-0.262702
-0.282554
-0.301076
-0.317939
-0.332894
-0.345769
-0.356461
-0.364922
-0.371138
-0.375118
-0.376914
-0.376561
-0.374077
-0.369482
-0.362767
-0.353899
-0.342805
-0.329377
-0.313482
-0.294983
-0.273805
-0.250037
-0.224075
-0.196789
-0.169624
-0.144536
-0.12366
-0.108734
-0.100467
-0.0982192
-0.100359
-0.105075
-0.109931
-0.0638391
-0.0651742
-0.0670631
-0.0697908
-0.0738068
-0.0793962
-0.0867641
-0.0960684
-0.107418
-0.120857
-0.136349
-0.153761
-0.172855
-0.193292
-0.214647
-0.236437
-0.258151
-0.279289
-0.299392
-0.318065
-0.334996
-0.349953
-0.362786
-0.373413
-0.381802
-0.387959
-0.391908
-0.393711
-0.393419
-0.391067
-0.386689
-0.3803
-0.371885
-0.361391
-0.348723
-0.333737
-0.316255
-0.296104
-0.273202
-0.247699
-0.220176
-0.191833
-0.164564
-0.140739
-0.122635
-0.111628
-0.107575
-0.108967
-0.113796
-0.119108
-0.0730112
-0.0741311
-0.0759023
-0.0786671
-0.0828364
-0.0886774
-0.0963834
-0.106101
-0.117924
-0.131886
-0.147931
-0.165905
-0.185548
-0.206497
-0.228305
-0.250473
-0.272478
-0.293817
-0.314035
-0.332748
-0.349658
-0.364552
-0.377295
-0.387818
-0.396107
-0.402179
-0.406068
-0.407841
-0.407566
-0.405286
-0.401054
-0.394904
-0.386845
-0.376853
-0.364856
-0.350728
-0.334283
-0.315299
-0.293571
-0.26904
-0.241988
-0.213293
-0.184631
-0.158423
-0.137369
-0.123538
-0.117436
-0.117851
-0.122674
-0.128406
-0.0820436
-0.0829282
-0.0845497
-0.0873069
-0.0915703
-0.0975879
-0.10554
-0.115559
-0.127727
-0.14206
-0.158491
-0.176847
-0.196852
-0.218124
-0.240204
-0.26258
-0.284727
-0.306142
-0.326375
-0.345054
-0.361893
-0.37669
-0.389325
-0.399738
-0.407923
-0.413904
-0.417723
-0.419447
-0.419158
-0.416905
-0.412755
-0.406761
-0.398957
-0.38935
-0.377902
-0.364517
-0.349031
-0.331211
-0.310787
-0.287544
-0.2615
-0.233185
-0.203938
-0.176047
-0.152459
-0.135879
-0.127567
-0.126794
-0.131483
-0.137589
-0.0907708
-0.0914053
-0.0928468
-0.0955478
-0.0998385
-0.105949
-0.114044
-0.124244
-0.136617
-0.151167
-0.167813
-0.186374
-0.206559
-0.22798
-0.250168
-0.272608
-0.294775
-0.31617
-0.33635
-0.354951
-0.371695
-0.386391
-0.398924
-0.40924
-0.417335
-0.423237
-0.426991
-0.428661
-0.42834
-0.426079
-0.421958
-0.416048
-0.408406
-0.399067
-0.388031
-0.375243
-0.360578
-0.343821
-0.324686
-0.302865
-0.278173
-0.250809
-0.221718
-0.192897
-0.167332
-0.148235
-0.137655
-0.135521
-0.139944
-0.14637
-0.0990454
-0.0994214
-0.100655
-0.103249
-0.107494
-0.113605
-0.121733
-0.131985
-0.144417
-0.159025
-0.175718
-0.194309
-0.214505
-0.235912
-0.258064
-0.280445
-0.302536
-0.32384
-0.343924
-0.362427
-0.379078
-0.393687
-0.406142
-0.416388
-0.424421
-0.430267
-0.43397
-0.435591
-0.435231
-0.432939
-0.428807
-0.42292
-0.415355
-0.406177
-0.395422
-0.383077
-0.369064
-0.353212
-0.33525
-0.314835
-0.291648
-0.265618
-0.237292
-0.208263
-0.181359
-0.16011
-0.147317
-0.143693
-0.147726
-0.154414
-0.106744
-0.10686
-0.107861
-0.110295
-0.114419
-0.120431
-0.128474
-0.138643
-0.150985
-0.165489
-0.182063
-0.200518
-0.220563
-0.241811
-0.263798
-0.286018
-0.307955
-0.329121
-0.349084
-0.367488
-0.384061
-0.398611
-0.411023
-0.421237
-0.429243
-0.435063
-0.438739
-0.440323
-0.439924
-0.437588
-0.433415
-0.427502
-0.419945
-0.410833
-0.400236
-0.388186
-0.374653
-0.359517
-0.342551
-0.323419
-0.301734
-0.277229
-0.250097
-0.221484
-0.193891
-0.17095
-0.1561
-0.150918
-0.154449
-0.161341
-0.113768
-0.113632
-0.114383
-0.116604
-0.120525
-0.126335
-0.134168
-0.144113
-0.156212
-0.170451
-0.186741
-0.2049
-0.224644
-0.245598
-0.267308
-0.289278
-0.311001
-0.331994
-0.351827
-0.370142
-0.386662
-0.40119
-0.413601
-0.423826
-0.431847
-0.437677
-0.441352
-0.442921
-0.442487
-0.440103
-0.435868
-0.429892
-0.422286
-0.413161
-0.402617
-0.390726
-0.377505
-0.362891
-0.346713
-0.32867
-0.308363
-0.285406
-0.259713
-0.231989
-0.204299
-0.180169
-0.163502
-0.156751
-0.159688
-0.166729
-0.120051
-0.119677
-0.120166
-0.122126
-0.125763
-0.131259
-0.138752
-0.148327
-0.160027
-0.173842
-0.189689
-0.207399
-0.226703
-0.247241
-0.268576
-0.290224
-0.311686
-0.332483
-0.352186
-0.37043
-0.38693
-0.401476
-0.413931
-0.424212
-0.432289
-0.438164
-0.441866
-0.443437
-0.442974
-0.440541
-0.436234
-0.430168
-0.422469
-0.413266
-0.402686
-0.390833
-0.377773
-0.363493
-0.347883
-0.330697
-0.311561
-0.290038
-0.265846
-0.239308
-0.212004
-0.187173
-0.168984
-0.160702
-0.162972
-0.170119
-0.125555
-0.124965
-0.125189
-0.126843
-0.130111
-0.13518
-0.142193
-0.151245
-0.162384
-0.175612
-0.190859
-0.207973
-0.226705
-0.246715
-0.267585
-0.288844
-0.310004
-0.33059
-0.350166
-0.368362
-0.384878
-0.399488
-0.412036
-0.422427
-0.43061
-0.436577
-0.440346
-0.441953
-0.441479
-0.438999
-0.434605
-0.428422
-0.420585
-0.411245
-0.400551
-0.388635
-0.375598
-0.361477
-0.346219
-0.32964
-0.311416
-0.291109
-0.268324
-0.243083
-0.216495
-0.191385
-0.171979
-0.162242
-0.163789
-0.171009
-0.13027
-0.129494
-0.129456
-0.130765
-0.133584
-0.138106
-0.144495
-0.152862
-0.163274
-0.17575
-0.190241
-0.206616
-0.224652
-0.24403
-0.264354
-0.285168
-0.305993
-0.326355
-0.345813
-0.363984
-0.380552
-0.39527
-0.407962
-0.418511
-0.426849
-0.432952
-0.436825
-0.438497
-0.438037
-0.435528
-0.431055
-0.424749
-0.416756
-0.407234
-0.396351
-0.384267
-0.371121
-0.356995
-0.341882
-0.325656
-0.308053
-0.28867
-0.267067
-0.243059
-0.217337
-0.192255
-0.171905
-0.1608
-0.16158
-0.168854
-0.134216
-0.133289
-0.133002
-0.13393
-0.136219
-0.140075
-0.145687
-0.153202
-0.162715
-0.174273
-0.187855
-0.203356
-0.220579
-0.239232
-0.258938
-0.279259
-0.299722
-0.319853
-0.339204
-0.357375
-0.37403
-0.3889
-0.401785
-0.412543
-0.421087
-0.427372
-0.431391
-0.433165
-0.432746
-0.430226
-0.425682
-0.419248
-0.411079
-0.401343
-0.390222
-0.377897
-0.364526
-0.350226
-0.335044
-0.318913
-0.301622
-0.282818
-0.262066
-0.239064
-0.214172
-0.189266
-0.168168
-0.155763
-0.15573
-0.163051
-0.137433
-0.136401
-0.135884
-0.136402
-0.13808
-0.141143
-0.145821
-0.152308
-0.160745
-0.171217
-0.183739
-0.198236
-0.214541
-0.232385
-0.251414
-0.271202
-0.291283
-0.31118
-0.330436
-0.348633
-0.365412
-0.380478
-0.393604
-0.404623
-0.413424
-0.419943
-0.424156
-0.426072
-0.425729
-0.423223
-0.418624
-0.412068
-0.403712
-0.393734
-0.382326
-0.369683
-0.355984
-0.341371
-0.325916
-0.309603
-0.292289
-0.273678
-0.253362
-0.230991
-0.206698
-0.18193
-0.160153
-0.146461
-0.145549
-0.15292
-0.139988
-0.1389
-0.13818
-0.138259
-0.139244
-0.141382
-0.144961
-0.150236
-0.157415
-0.166635
-0.17795
-0.191324
-0.206616
-0.223582
-0.241885
-0.261111
-0.280798
-0.300466
-0.319643
-0.337893
-0.354832
-0.370138
-0.383555
-0.394887
-0.403999
-0.410805
-0.415262
-0.417367
-0.417147
-0.414685
-0.410059
-0.403394
-0.394852
-0.384614
-0.372877
-0.359845
-0.345711
-0.330634
-0.314711
-0.297949
-0.280251
-0.261392
-0.241019
-0.218774
-0.194658
-0.169777
-0.147216
-0.132149
-0.130246
-0.137668
-0.141963
-0.140878
-0.139984
-0.139596
-0.139799
-0.140872
-0.143175
-0.147051
-0.152788
-0.16059
-0.170562
-0.182705
-0.196906
-0.212941
-0.230487
-0.249138
-0.268432
-0.287882
-0.307001
-0.325334
-0.342471
-0.358061
-0.371816
-0.383515
-0.392994
-0.400143
-0.404901
-0.407248
-0.407201
-0.404826
-0.400208
-0.39346
-0.384741
-0.374233
-0.362133
-0.348647
-0.333972
-0.318274
-0.301665
-0.284173
-0.26572
-0.246123
-0.225107
-0.202356
-0.177805
-0.152326
-0.128655
-0.111967
-0.108884
-0.116337
-0.143458
-0.142442
-0.141408
-0.140515
-0.139832
-0.139686
-0.140528
-0.142812
-0.146926
-0.153156
-0.161664
-0.172489
-0.185542
-0.200616
-0.217394
-0.235474
-0.25439
-0.273644
-0.292736
-0.311187
-0.32856
-0.344477
-0.358622
-0.37074
-0.380642
-0.388193
-0.393311
-0.395959
-0.396142
-0.393906
-0.389341
-0.382544
-0.373669
-0.362891
-0.350401
-0.336398
-0.321073
-0.304591
-0.28706
-0.268517
-0.248898
-0.228035
-0.205698
-0.18166
-0.155866
-0.129051
-0.103677
-0.0849002
-0.0803201
-0.0877268
-0.144594
-0.143723
-0.142577
-0.141123
-0.139427
-0.137888
-0.137073
-0.137572
-0.139892
-0.144412
-0.151358
-0.160804
-0.172682
-0.186791
-0.202818
-0.220353
-0.238925
-0.258021
-0.277123
-0.295732
-0.313385
-0.329675
-0.344256
-0.356847
-0.367228
-0.375241
-0.380782
-0.383796
-0.384271
-0.382237
-0.377776
-0.370975
-0.361972
-0.35093
-0.338027
-0.323445
-0.307359
-0.289915
-0.271206
-0.251255
-0.229995
-0.207263
-0.18284
-0.156569
-0.128501
-0.0993324
-0.0713418
-0.0496981
-0.0431069
-0.0502661
-0.145523
-0.14488
-0.143638
-0.141528
-0.138652
-0.135517
-0.132839
-0.131366
-0.131742
-0.134445
-0.139765
-0.147809
-0.158519
-0.171696
-0.187015
-0.204059
-0.222339
-0.24133
-0.260493
-0.279308
-0.297287
-0.313996
-0.329062
-0.342175
-0.353091
-0.361625
-0.367652
-0.371096
-0.37193
-0.370167
-0.365866
-0.359111
-0.350014
-0.33872
-0.325384
-0.310161
-0.293193
-0.274594
-0.254422
-0.232665
-0.209225
-0.18392
-0.156529
-0.126908
-0.0952656
-0.0624132
-0.0305104
-0.00479079
0.0046537
-0.00182239
-0.146451
-0.146124
-0.144766
-0.141843
-0.13756
-0.132589
-0.127833
-0.124217
-0.122531
-0.123354
-0.127032
-0.133697
-0.143291
-0.155604
-0.170295
-0.186926
-0.204991
-0.223945
-0.24323
-0.262304
-0.280658
-0.297833
-0.31343
-0.327113
-0.338614
-0.347725
-0.354297
-0.358235
-0.359492
-0.358064
-0.353985
-0.347325
-0.33817
-0.326636
-0.312845
-0.296912
-0.278934
-0.25897
-0.237021
-0.213013
-0.186784
-0.158096
-0.126696
-0.0924449
-0.0556267
-0.0173537
0.0201727
0.051712
0.0653893
0.0604996
-0.147697
-0.147752
-0.146191
-0.142191
-0.136188
-0.129096
-0.122041
-0.11614
-0.112325
-0.111264
-0.113345
-0.118709
-0.127289
-0.138848
-0.153021
-0.169345
-0.18729
-0.206289
-0.225766
-0.245158
-0.263936
-0.28162
-0.297788
-0.312083
-0.324211
-0.333944
-0.341111
-0.345596
-0.347332
-0.346295
-0.342493
-0.33597
-0.326786
-0.315016
-0.300741
-0.284023
-0.264895
-0.243342
-0.219278
-0.192531
-0.162835
-0.12985
-0.0932363
-0.0528233
-0.00893813
0.0370188
0.0823648
0.121977
0.142002
0.140396
-0.149819
-0.15024
-0.148242
-0.142735
-0.134578
-0.125023
-0.115454
-0.107169
-0.101222
-0.0983449
-0.0989445
-0.10315
-0.110866
-0.121823
-0.13562
-0.151764
-0.169698
-0.188833
-0.208575
-0.228342
-0.247589
-0.265817
-0.282585
-0.297517
-0.310299
-0.320681
-0.328474
-0.33354
-0.335791
-0.335179
-0.33169
-0.325332
-0.316132
-0.304119
-0.289321
-0.271735
-0.251311
-0.227934
-0.201401
-0.171401
-0.137511
-0.0992229
-0.0560401
-0.00768446
0.0455246
0.102058
0.158271
0.20877
0.238292
0.24274
-0.153876
-0.154411
-0.15144
-0.143725
-0.132818
-0.120395
-0.108105
-0.0973976
-0.0893937
-0.0848489
-0.0841554
-0.0874042
-0.0944545
-0.104992
-0.118575
-0.134677
-0.152713
-0.172074
-0.192147
-0.212336
-0.232082
-0.250871
-0.268247
-0.283819
-0.297254
-0.308286
-0.316705
-0.322354
-0.325124
-0.324943
-0.321769
-0.315579
-0.306356
-0.294077
-0.278706
-0.260163
-0.238298
-0.212872
-0.183527
-0.149766
-0.110947
-0.0663132
-0.0151129
0.0431584
0.108316
0.178786
0.250366
0.316043
0.360522
0.375955
-0.161996
-0.161768
-0.15667
-0.145616
-0.131142
-0.115369
-0.100156
-0.0870447
-0.0771387
-0.0711457
-0.0694082
-0.071947
-0.0785582
-0.0888736
-0.102408
-0.1186
-0.136839
-0.156497
-0.176946
-0.197579
-0.217826
-0.237163
-0.255123
-0.271301
-0.285353
-0.296995
-0.306001
-0.312197
-0.315452
-0.315671
-0.312782
-0.306729
-0.297451
-0.284873
-0.268878
-0.249297
-0.225868
-0.198201
-0.165753
-0.12779
-0.0833818
-0.0314304
0.0292007
0.0994057
0.179326
0.267564
0.35988
0.447929
0.516617
0.55346
-0.178435
-0.175115
-0.165485
-0.149249
-0.130077
-0.110358
-0.092012
-0.0765429
-0.0649328
-0.0577538
-0.0552475
-0.0573328
-0.0637267
-0.0740015
-0.0876275
-0.10401
-0.122517
-0.142505
-0.163334
-0.184392
-0.205101
-0.224931
-0.243408
-0.260118
-0.274706
-0.286878
-0.296394
-0.303063
-0.306734
-0.30729
-0.304632
-0.298668
-0.289295
-0.276377
-0.259722
-0.239057
-0.213994
-0.183982
-0.148259
-0.105819
-0.0553749
0.00461554
0.0758381
0.159824
0.257365
0.36756
0.486397
0.606004
0.707812
0.779832
-0.211351
-0.199547
-0.180382
-0.15587
-0.130395
-0.105984
-0.084254
-0.0664613
-0.0533439
-0.0452531
-0.0422394
-0.0440957
-0.0504506
-0.0608143
-0.0746154
-0.0912316
-0.110014
-0.130309
-0.151472
-0.172886
-0.193973
-0.2142
-0.23309
-0.250223
-0.26524
-0.277837
-0.287762
-0.294812
-0.298819
-0.299644
-0.297162
-0.291247
-0.281751
-0.268484
-0.251177
-0.229452
-0.202795
-0.170486
-0.131543
-0.0846627
-0.0281638
0.0400348
0.122358
0.221346
0.339104
0.476209
0.629787
0.791374
0.930632
1.03508
-0.280272
-0.243429
-0.202848
-0.16485
-0.131108
-0.101385
-0.07631
-0.056542
-0.0423498
-0.0337313
-0.0305164
-0.0323737
-0.0388468
-0.0493929
-0.0634097
-0.0802584
-0.0992823
-0.119824
-0.141242
-0.162921
-0.184284
-0.204802
-0.223997
-0.241449
-0.256794
-0.269722
-0.279974
-0.287334
-0.291621
-0.292676
-0.290352
-0.284489
-0.274902
-0.261346
-0.243486
-0.220858
-0.192833
-0.158542
-0.116807
-0.0660554
-0.0042288
0.0713058
0.163825
0.277247
0.415939
0.584134
0.784047
1.0099
1.21714
1.36926
-0.45801
-0.313119
-0.218549
-0.164615
-0.124205
-0.0903218
-0.0635302
-0.043493
-0.0294977
-0.0212265
-0.0184406
-0.0207482
-0.027645
-0.0385718
-0.052929
-0.0700847
-0.0893909
-0.1102
-0.131881
-0.153825
-0.175464
-0.196271
-0.215773
-0.233549
-0.249232
-0.262507
-0.273109
-0.280813
-0.285425
-0.286773
-0.284688
-0.27899
-0.269459
-0.255816
-0.237681
-0.214538
-0.185678
-0.150136
-0.106603
-0.0533295
0.0119989
0.0924255
0.191938
0.315788
0.471006
0.667297
0.91808
1.23959
1.62917
2.07738
-0.913084
-0.400341
-0.194425
-0.145767
-0.108163
-0.0713185
-0.0445467
-0.0263671
-0.0140572
-0.00704125
-0.00527385
-0.00842579
-0.016005
-0.0274852
-0.042306
-0.0598668
-0.0795431
-0.100706
-0.122737
-0.14504
-0.167053
-0.188254
-0.208169
-0.226376
-0.242506
-0.25624
-0.267306
-0.27547
-0.280532
-0.282309
-0.28062
-0.275274
-0.266041
-0.252625
-0.234631
-0.211517
-0.182551
-0.146734
-0.102722
-0.0487127
0.0176913
0.0996854
0.201572
0.32931
0.491608
0.702388
0.986704
1.39868
2.06764
3.21982
)
;

boundaryField
{
    movingWall
    {
        type            zeroGradient;
    }
    fixedWalls
    {
        type            zeroGradient;
    }
    frontAndBack
    {
        type            empty;
    }
}


// ************************************************************************* //
