/*--------------------------------*- C++ -*----------------------------------*\
  =========                 |
  \\      /  F ield         | OpenFOAM: The Open Source CFD Toolbox
   \\    /   O peration     | Website:  https://openfoam.org
    \\  /    A nd           | Version:  7
     \\/     M anipulation  |
\*---------------------------------------------------------------------------*/
FoamFile
{
    version     2.0;
    format      ascii;
    class       surfaceScalarField;
    location    "500";
    object      phi;
}
// * * * * * * * * * * * * * * * * * * * * * * * * * * * * * * * * * * * * * //

dimensions      [0 3 -1 0 0 0 0];

internalField   nonuniform List<scalar> 
4900
(
5.40522e-07
-5.46317e-07
1.32278e-06
-7.82284e-07
1.85546e-06
-5.32709e-07
1.92521e-06
-6.97567e-08
1.47833e-06
4.46873e-07
5.3014e-07
9.48174e-07
-8.82513e-07
1.41264e-06
-2.72474e-06
1.84222e-06
-4.97207e-06
2.24733e-06
-7.61026e-06
2.63818e-06
-1.06307e-05
3.02043e-06
-1.40241e-05
3.39346e-06
-1.77745e-05
3.75034e-06
-2.1853e-05
4.07856e-06
-2.62141e-05
4.36108e-06
-3.07917e-05
4.57756e-06
-3.54973e-05
4.70568e-06
-4.02199e-05
4.72258e-06
-4.48263e-05
4.60644e-06
-4.91647e-05
4.33834e-06
-5.30688e-05
3.90411e-06
-5.63652e-05
3.2964e-06
-5.88816e-05
2.51647e-06
-6.04575e-05
1.57583e-06
-6.09548e-05
4.97357e-07
-6.02704e-05
-6.84436e-07
-5.83456e-05
-1.92483e-06
-5.51759e-05
-3.16967e-06
-5.08173e-05
-4.3586e-06
-4.53885e-05
-5.42886e-06
-3.90687e-05
-6.3198e-06
-3.20909e-05
-6.97785e-06
-2.47295e-05
-7.36143e-06
-1.72844e-05
-7.44513e-06
-1.00617e-05
-7.22278e-06
-3.35321e-06
-6.70849e-06
2.58279e-06
-5.93602e-06
7.53869e-06
-4.95593e-06
1.13689e-05
-3.83021e-06
1.39955e-05
-2.62662e-06
1.54087e-05
-1.41326e-06
1.56619e-05
-2.53225e-07
1.48636e-05
7.98385e-07
1.31691e-05
1.69445e-06
1.07792e-05
2.38994e-06
7.94553e-06
2.83364e-06
4.9895e-06
2.95604e-06
2.332e-06
2.6575e-06
5.14944e-07
1.81706e-06
5.14943e-07
7.89575e-07
-1.33591e-06
1.67139e-06
-1.6642e-06
1.7872e-06
-6.48594e-07
7.52402e-07
9.65014e-07
-1.56063e-06
2.75987e-06
-5.14808e-06
4.53559e-06
-9.95479e-06
6.21932e-06
-1.59177e-05
7.80514e-06
-2.29832e-05
9.31275e-06
-3.11069e-05
1.07618e-05
-4.0245e-05
1.21585e-05
-5.03413e-05
1.34898e-05
-6.1314e-05
1.47231e-05
-7.30443e-05
1.58089e-05
-8.53675e-05
1.66842e-05
-9.80676e-05
1.72776e-05
-0.000110876
1.75141e-05
-0.000123474
1.73206e-05
-0.0001355
1.66319e-05
-0.000146558
1.53967e-05
-0.000156237
1.35832e-05
-0.000164126
1.11853e-05
-0.000169836
8.22658e-06
-0.000173024
4.76388e-06
-0.000173415
8.88579e-07
-0.000170826
-3.27376e-06
-0.000165181
-7.56974e-06
-0.000156529
-1.18225e-05
-0.000145046
-1.58413e-05
-0.000131042
-1.94329e-05
-0.000114948
-2.24137e-05
-9.73027e-05
-2.46232e-05
-7.87271e-05
-2.59371e-05
-5.98937e-05
-2.62786e-05
-4.14901e-05
-2.56264e-05
-2.41801e-05
-2.40185e-05
-8.56475e-06
-2.15514e-05
4.85189e-06
-1.83726e-05
1.56913e-05
-1.46697e-05
2.37195e-05
-1.06548e-05
2.88533e-05
-6.54707e-06
3.11588e-05
-2.55881e-06
3.08431e-05
1.11412e-06
2.82422e-05
4.2953e-06
2.38158e-05
6.81638e-06
1.81504e-05
8.49904e-06
1.19761e-05
9.13032e-06
6.18754e-06
8.44603e-06
1.83032e-06
6.17427e-06
2.34525e-06
4.87987e-07
-1.82392e-06
4.50397e-07
-1.62668e-06
-9.65428e-07
7.67218e-07
-4.14351e-06
4.14306e-06
-9.21213e-06
7.82846e-06
-1.61672e-05
1.14906e-05
-2.49492e-05
1.50013e-05
-3.54851e-05
1.8341e-05
-4.77029e-05
2.15305e-05
-6.15281e-05
2.4587e-05
-7.68713e-05
2.75017e-05
-9.36111e-05
3.02295e-05
-0.000111578
3.26899e-05
-0.000130541
3.4772e-05
-0.0001502
3.6343e-05
-0.000170181
3.72588e-05
-0.000190041
3.73742e-05
-0.000209276
3.65552e-05
-0.000227334
3.469e-05
-0.000243638
3.17007e-05
-0.000257608
2.75529e-05
-0.000268687
2.22643e-05
-0.000276371
1.59109e-05
-0.000280237
8.62948e-06
-0.000279966
6.17966e-07
-0.000275373
-7.86769e-06
-0.000266415
-1.65275e-05
-0.000253211
-2.50263e-05
-0.000236042
-3.30107e-05
-0.000215348
-4.01269e-05
-0.000191719
-4.60421e-05
-0.000165877
-5.04654e-05
-0.000138645
-5.31697e-05
-0.000110913
-5.40103e-05
-8.35999e-05
-5.29395e-05
-5.7604e-05
-5.00144e-05
-3.37585e-05
-4.5397e-05
-1.27856e-05
-3.93455e-05
4.74134e-06
-3.21967e-05
1.84291e-05
-2.43426e-05
2.80841e-05
-1.6202e-05
3.37187e-05
-8.1934e-06
3.55489e-05
-7.16083e-07
3.39867e-05
5.85745e-06
2.96296e-05
1.11734e-05
2.32581e-05
1.48706e-05
1.58382e-05
1.65502e-05
8.52943e-06
1.57548e-05
2.6938e-06
1.20099e-05
5.03905e-06
-1.62009e-07
-1.66192e-06
-1.8108e-06
2.20763e-08
-5.58249e-06
4.53887e-06
-1.173e-05
1.02905e-05
-2.03079e-05
1.64063e-05
-3.12775e-05
2.24601e-05
-4.4565e-05
2.82888e-05
-6.00878e-05
3.38639e-05
-7.77574e-05
3.92e-05
-9.74673e-05
4.42969e-05
-0.000119075
4.91093e-05
-0.000142383
5.35371e-05
-0.000167121
5.74278e-05
-0.000192936
6.05877e-05
-0.00021939
6.27964e-05
-0.000245956
6.38249e-05
-0.000272035
6.34536e-05
-0.000296971
6.14907e-05
-0.00032007
5.77894e-05
-0.000340633
5.22631e-05
-0.000357978
4.48985e-05
-0.000371478
3.57643e-05
-0.000380583
2.50158e-05
-0.00038485
1.28959e-05
-0.000383964
-2.68356e-07
-0.00037776
-1.40717e-05
-0.000366234
-2.80535e-05
-0.000349551
-4.1709e-05
-0.00032805
-5.45122e-05
-0.000302237
-6.59394e-05
-0.000272783
-7.54965e-05
-0.000240499
-8.27487e-05
-0.00020632
-8.73492e-05
-0.000171264
-8.90669e-05
-0.000136395
-8.7808e-05
-0.000102778
-8.36313e-05
-7.14237e-05
-7.67515e-05
-4.32381e-05
-6.75312e-05
-1.89745e-05
-5.64603e-05
8.08203e-07
-4.41253e-05
1.5777e-05
-3.11708e-05
2.58447e-05
-1.82611e-05
3.11746e-05
-6.04599e-06
3.21785e-05
4.85356e-06
2.9505e-05
1.38469e-05
2.40318e-05
2.03438e-05
1.68602e-05
2.37218e-05
9.32133e-06
2.32936e-05
3.0177e-06
1.83135e-05
8.05675e-06
-1.03604e-06
-6.25894e-07
-4.79238e-06
3.77837e-06
-1.15396e-05
1.12861e-05
-2.12975e-05
2.00484e-05
-3.39838e-05
2.90927e-05
-4.94902e-05
3.79664e-05
-6.77119e-05
4.65104e-05
-8.855e-05
5.4702e-05
-0.000111895
6.25453e-05
-0.000137605
7.00062e-05
-0.000165477
7.69812e-05
-0.000195231
8.3291e-05
-0.000226493
8.86897e-05
-0.000258789
9.28841e-05
-0.00029155
9.55571e-05
-0.000324119
9.63937e-05
-0.000355772
9.51065e-05
-0.000385741
9.14603e-05
-0.000413245
8.52933e-05
-0.000437516
7.6534e-05
-0.000457831
6.52134e-05
-0.000473539
5.14722e-05
-0.000484086
3.5562e-05
-0.000489032
1.7842e-05
-0.000488073
-1.22713e-06
-0.000481053
-2.10916e-05
-0.000467973
-4.11342e-05
-0.000448997
-6.06848e-05
-0.000424463
-7.90463e-05
-0.000394881
-9.55217e-05
-0.00036093
-0.000109447
-0.000323453
-0.000120227
-0.000283431
-0.000127371
-0.000241962
-0.000130536
-0.000200219
-0.000129551
-0.000159405
-0.000124446
-0.000120693
-0.000115463
-8.51719e-05
-0.000103052
-5.37825e-05
-8.78497e-05
-2.72671e-05
-7.06407e-05
-6.12455e-06
-5.23134e-05
9.42056e-06
-3.38062e-05
1.94359e-05
-1.60614e-05
2.42805e-05
9.02074e-09
2.45993e-05
1.3528e-05
2.13073e-05
2.36358e-05
1.55827e-05
2.94464e-05
8.87137e-06
3.00049e-05
2.93383e-06
2.4251e-05
1.09906e-05
-2.06799e-06
1.44207e-06
-8.29019e-06
1.00005e-05
-1.84667e-05
2.14625e-05
-3.23063e-05
3.3888e-05
-4.95403e-05
4.63266e-05
-6.99611e-05
5.83871e-05
-9.34172e-05
6.99665e-05
-0.000119784
8.10688e-05
-0.000148925
9.16866e-05
-0.000180656
0.000101737
-0.000214711
0.000111036
-0.000250726
0.000119306
-0.000288227
0.00012619
-0.000326631
0.000131288
-0.000365259
0.000134185
-0.000403354
0.000134489
-0.000440109
0.000131861
-0.000474693
0.000126044
-0.000506282
0.000116882
-0.000534087
0.00010434
-0.000557383
8.85093e-05
-0.000575524
6.96125e-05
-0.000587961
4.79989e-05
-0.000594257
2.41386e-05
-0.000594098
-1.38661e-06
-0.0005873
-2.78893e-05
-0.000573823
-5.46113e-05
-0.000553779
-8.07289e-05
-0.000527446
-0.00010538
-0.000495277
-0.000127691
-0.000457908
-0.000146816
-0.000416157
-0.000161977
-0.000371018
-0.000172511
-0.000323634
-0.000177919
-0.000275272
-0.000177913
-0.000227267
-0.000172451
-0.000180963
-0.000161767
-0.000137648
-0.000146367
-9.84789e-05
-0.000127019
-6.44119e-05
-0.000104708
-3.61462e-05
-8.05792e-05
-1.40781e-05
-5.58743e-05
1.72428e-06
-3.18637e-05
1.15318e-05
-9.79848e-06
1.59486e-05
9.11126e-06
1.58906e-05
2.36937e-05
1.2576e-05
3.27611e-05
7.52163e-06
3.50592e-05
2.57298e-06
2.91997e-05
1.35636e-05
-3.21477e-06
4.65682e-06
-1.21546e-05
1.89403e-05
-2.60709e-05
3.53788e-05
-4.43051e-05
5.21221e-05
-6.63662e-05
6.83876e-05
-9.19267e-05
8.39475e-05
-0.000120775
9.88151e-05
-0.000152753
0.000113047
-0.000187691
0.000126624
-0.000225357
0.000139402
-0.000265421
0.0001511
-0.000307439
0.000161324
-0.00035085
0.0001696
-0.000394981
0.00017542
-0.000439076
0.00017828
-0.000482316
0.000177728
-0.000523848
0.000173394
-0.000562823
0.000165018
-0.000598414
0.000152473
-0.000629844
0.00013577
-0.000656403
0.000115068
-0.000677458
9.06668e-05
-0.000692461
6.30017e-05
-0.000700958
3.2636e-05
-0.000702596
2.50815e-07
-0.000697127
-3.33582e-05
-0.000684427
-6.73106e-05
-0.000664511
-0.000100646
-0.000637547
-0.000132343
-0.000603884
-0.000161354
-0.000564065
-0.000186636
-0.000518839
-0.000207203
-0.00046917
-0.00022218
-0.000416221
-0.000230868
-0.000361332
-0.000232802
-0.000305969
-0.000227815
-0.000251662
-0.000216074
-0.000199924
-0.000198105
-0.000152165
-0.000174778
-0.000109604
-0.000147269
-7.3186e-05
-0.000116997
-4.35256e-05
-8.55347e-05
-2.08646e-05
-5.45247e-05
-5.05678e-06
-2.56063e-05
4.4273e-06
-3.72828e-07
8.48458e-06
1.96365e-05
8.34738e-06
3.28983e-05
5.57277e-06
3.78338e-05
2.04354e-06
3.27289e-05
1.56071e-05
-4.44043e-06
9.09722e-06
-1.62562e-05
3.0756e-05
-3.40918e-05
5.32143e-05
-5.68832e-05
7.49135e-05
-8.38951e-05
9.53994e-05
-0.000114667
0.000114719
-0.00014892
0.000133068
-0.000186454
0.000150581
-0.00022706
0.000167231
-0.000270459
0.000182801
-0.000316259
0.000196901
-0.000363947
0.000209011
-0.000412888
0.000218542
-0.000462353
0.000224884
-0.000511535
0.000227462
-0.00055959
0.000225783
-0.000605661
0.000219465
-0.000648909
0.000208266
-0.000688531
0.000192095
-0.000723778
0.000171017
-0.000753959
0.00014525
-0.000778451
0.000115158
-0.000796695
8.12461e-05
-0.000808205
4.41456e-05
-0.000812566
4.6121e-06
-0.000809446
-3.64785e-05
-0.000798613
-7.81438e-05
-0.000779951
-0.000119307
-0.00075349
-0.000158805
-0.000719429
-0.000195415
-0.000678172
-0.000227893
-0.000630353
-0.000255023
-0.000576852
-0.000275681
-0.000518807
-0.000288913
-0.000457595
-0.000294014
-0.000394796
-0.000290614
-0.000332126
-0.000278744
-0.00027135
-0.000258881
-0.000214175
-0.000231952
-0.000162137
-0.000199307
-0.000116494
-0.00016264
-7.81422e-05
-0.000123887
-4.7552e-05
-8.51148e-05
-2.47457e-05
-4.84126e-05
-9.29864e-06
-1.58199e-05
-3.61565e-07
1.06994e-05
3.29786e-06
2.92388e-05
3.26069e-06
3.7871e-05
1.42808e-06
3.45615e-05
1.70352e-05
-5.70871e-06
1.48059e-05
-2.0468e-05
4.55153e-05
-4.22763e-05
7.50226e-05
-6.96434e-05
0.000102281
-0.000101579
0.000127335
-0.000137485
0.000150625
-0.000177008
0.000172591
-0.000219905
0.000193477
-0.000265925
0.000213251
-0.000314738
0.000231614
-0.000365899
0.000248061
-0.000418837
0.00026195
-0.000472871
0.000272576
-0.000527233
0.000279246
-0.000581104
0.000281333
-0.00063364
0.000278319
-0.000684005
0.00026983
-0.00073139
0.000255652
-0.000775029
0.000235734
-0.000814202
0.000210189
-0.000848239
0.000179287
-0.000876522
0.000143441
-0.000898478
0.000103202
-0.000913584
5.92521e-05
-0.000921369
1.23969e-05
-0.000921414
-3.64335e-05
-0.000913379
-8.61791e-05
-0.000897011
-0.000135675
-0.000872178
-0.000183638
-0.000838903
-0.00022869
-0.000797403
-0.000269393
-0.000748133
-0.000304293
-0.000691824
-0.00033199
-0.000629513
-0.000351223
-0.000562552
-0.000360975
-0.000492583
-0.000360584
-0.000421483
-0.000349844
-0.000351276
-0.000329088
-0.000284002
-0.000299226
-0.000221579
-0.000261731
-0.000165659
-0.00021856
-0.000117504
-0.000172042
-7.78948e-05
-0.000124724
-4.70882e-05
-7.92193e-05
-2.48094e-05
-3.80987e-05
-1.02868e-05
-3.82317e-06
-2.30149e-06
2.12535e-05
7.45503e-07
3.4824e-05
7.81791e-07
3.45252e-05
1.7817e-05
-6.97978e-06
2.17857e-05
-2.46571e-05
6.31924e-05
-5.03675e-05
0.000100733
-8.219e-05
0.000134103
-0.000118879
0.000164024
-0.000159698
0.000191444
-0.000204221
0.000217114
-0.000252153
0.00024141
-0.000303203
0.0002643
-0.000356995
0.000285406
-0.000413036
0.000304103
-0.000470716
0.000319629
-0.000529322
0.000331182
-0.000588076
0.000338
-0.000646162
0.000339419
-0.000702759
0.000334916
-0.000757064
0.000324135
-0.000808305
0.000306892
-0.00085575
0.000283179
-0.000898713
0.000253152
-0.000936545
0.000217119
-0.000968638
0.000175534
-0.00099442
0.000128984
-0.00101335
7.81843e-05
-0.00102493
2.39726e-05
-0.00102867
-3.26901e-05
-0.00102415
-9.06959e-05
-0.001011
-0.000148828
-0.00098892
-0.00020572
-0.000957731
-0.000259878
-0.000917425
-0.000309699
-0.000868212
-0.000353506
-0.000810586
-0.000389615
-0.000745387
-0.000416423
-0.000673832
-0.00043253
-0.000597537
-0.000436879
-0.000518473
-0.000428908
-0.000438887
-0.000408673
-0.00036117
-0.000376944
-0.000287676
-0.000335224
-0.000220544
-0.000285692
-0.000161512
-0.000231074
-0.000111784
-0.000174452
-7.19451e-05
-0.000119058
-4.19446e-05
-6.80992e-05
-2.11313e-05
-2.46364e-05
-8.32165e-06
8.44385e-06
-1.89258e-06
2.83949e-05
1.32722e-07
3.24999e-05
1.79497e-05
-8.20972e-06
2.99953e-05
-2.86834e-05
8.3666e-05
-5.81034e-05
0.000130153
-9.41287e-05
0.000170128
-0.000135267
0.000205162
-0.000180645
0.000236822
-0.000229763
0.000266232
-0.000282278
0.000293925
-0.000337854
0.000319876
-0.000396074
0.000343626
-0.000456407
0.000364436
-0.000518215
0.000381437
-0.000580772
0.000393739
-0.000643299
0.000400528
-0.000705
0.000401119
-0.000765079
0.000394995
-0.000822766
0.000381822
-0.000877326
0.000361453
-0.000928063
0.000333917
-0.000974323
0.000299411
-0.00101549
0.000258287
-0.00105099
0.000211035
-0.00108028
0.000158276
-0.00110285
0.00010075
-0.00111819
3.93178e-05
-0.00112583
-2.50522e-05
-0.00112529
-9.12387e-05
-0.0011161
-0.000158016
-0.00109783
-0.000223992
-0.0010701
-0.000287612
-0.00103263
-0.000347165
-0.000985337
-0.000400799
-0.000928386
-0.000446566
-0.000862295
-0.000482514
-0.000788018
-0.000506807
-0.000706998
-0.0005179
-0.000621177
-0.000514729
-0.000532942
-0.000496908
-0.000444997
-0.000464889
-0.000360166
-0.000420055
-0.000281155
-0.000364704
-0.000210306
-0.000301923
-0.000149389
-0.000235369
-9.94566e-05
-0.000168991
-6.07906e-05
-0.000106765
-3.29317e-05
-5.24954e-05
-1.47678e-05
-9.72009e-06
-4.6491e-06
1.82762e-05
-5.1642e-07
2.83672e-05
1.74333e-05
-9.35167e-06
3.9347e-05
-3.24033e-05
0.000106718
-6.52221e-05
0.000162972
-0.000105073
0.000209979
-0.000150231
0.00025032
-0.000199694
0.000286285
-0.000252885
0.000319423
-0.000309412
0.000350451
-0.000368895
0.000379359
-0.000430881
0.000405611
-0.000494809
0.000428364
-0.000560018
0.000446646
-0.000625779
0.0004595
-0.000691321
0.000466069
-0.000755862
0.00046566
-0.000818632
0.000457765
-0.000878889
0.000442079
-0.00093593
0.000418493
-0.000989094
0.000387081
-0.00103777
0.00034809
-0.00108141
0.000301921
-0.00111948
0.000249113
-0.00115154
0.000190329
-0.00117713
0.000126338
-0.00119582
5.80114e-05
-0.00120718
-1.36902e-05
-0.00121075
-8.7674e-05
-0.00120601
-0.000162751
-0.00119243
-0.000237568
-0.00116946
-0.00031059
-0.00113654
-0.000380078
-0.00109326
-0.000444082
-0.00103937
-0.000500458
-0.000974948
-0.000546932
-0.000900535
-0.00058122
-0.000817221
-0.000601213
-0.000726739
-0.000605211
-0.000631458
-0.000592189
-0.000534291
-0.000562057
-0.000438497
-0.000515849
-0.000347405
-0.000455796
-0.000264084
-0.000385244
-0.000191036
-0.000308417
-0.000129961
-0.000230067
-8.16298e-05
-0.000155096
-4.58903e-05
-8.82349e-05
-2.17612e-05
-3.38492e-05
-7.58399e-06
4.09898e-06
-1.1837e-06
2.19669e-05
1.62496e-05
-1.0358e-05
4.97049e-05
-3.56747e-05
0.000132034
-7.14703e-05
0.000198767
-0.000114656
0.000253165
-0.000163294
0.000298958
-0.000216256
0.000339246
-0.000272891
0.000376059
-0.000332755
0.000410315
-0.000395425
0.000442029
-0.000460411
0.000470598
-0.000527127
0.000495079
-0.000594897
0.000514416
-0.000662986
0.000527589
-0.000730627
0.000533711
-0.00079705
0.000532082
-0.0008615
0.000522215
-0.000923258
0.000503837
-0.00098165
0.000476885
-0.00103606
0.000441492
-0.00108595
0.000397974
-0.00113083
0.000346803
-0.0011703
0.000288586
-0.00120401
0.000224042
-0.00123165
0.000153978
-0.00125291
7.92714e-05
-0.00126747
8.63457e-07
-0.00127491
-8.02283e-05
-0.00127477
-0.000162888
-0.00126647
-0.000245875
-0.0012493
-0.00032776
-0.0012225
-0.000406879
-0.00118529
-0.00048129
-0.00113699
-0.000548755
-0.00107716
-0.000606763
-0.00100576
-0.000652622
-0.00092334
-0.000683633
-0.000831195
-0.000697355
-0.000731449
-0.000691935
-0.000627031
-0.000666475
-0.000521517
-0.000621362
-0.000418838
-0.000558475
-0.000322874
-0.000481208
-0.00023703
-0.00039426
-0.000163866
-0.000303231
-0.000104854
-0.000214108
-6.03162e-05
-0.000132773
-2.95073e-05
-6.46581e-05
-1.08033e-05
-1.46051e-05
-1.90222e-06
1.30659e-05
1.43474e-05
-1.1183e-05
6.08879e-05
-3.83637e-05
0.000159215
-7.6613e-05
0.000237017
-0.000122543
0.000299095
-0.000174022
0.000350437
-0.000229806
0.00039503
-0.000289167
0.000435419
-0.000351603
0.000472751
-0.000416649
0.000507075
-0.000483779
0.000537728
-0.000552381
0.000563681
-0.000621764
0.000583799
-0.000691183
0.000597008
-0.000759869
0.000602397
-0.000827054
0.000599267
-0.000891992
0.000587154
-0.000953983
0.000565828
-0.00101239
0.000535291
-0.00106666
0.000495759
-0.00111632
0.000447639
-0.00116102
0.000391505
-0.00120049
0.000328058
-0.00123454
0.000258092
-0.00126303
0.000182461
-0.0012858
0.000102049
-0.0013027
1.77624e-05
-0.00131345
-6.94784e-05
-0.00131766
-0.000158676
-0.00131477
-0.000248765
-0.00130403
-0.000338504
-0.0012845
-0.000426408
-0.00125512
-0.000510673
-0.00121477
-0.000589103
-0.00116245
-0.000659082
-0.00109745
-0.000717618
-0.00101961
-0.000761472
-0.000929547
-0.000787421
-0.000828848
-0.000792633
-0.000720183
-0.000775141
-0.000607215
-0.00073433
-0.000494347
-0.000671343
-0.000386277
-0.000589279
-0.000287445
-0.000493093
-0.000201492
-0.000389183
-0.000130853
-0.000284748
-7.65523e-05
-0.000187073
-3.82491e-05
-0.000102961
-1.44373e-05
-3.84169e-05
-2.71393e-06
1.34254e-06
1.16335e-05
-1.17855e-05
7.26733e-05
-4.03516e-05
0.000187781
-8.04447e-05
0.00027711
-0.000128441
0.000347091
-0.000182046
0.000404042
-0.000239899
0.000452883
-0.000301193
0.000496713
-0.000365366
0.000536924
-0.000431907
0.000573615
-0.000500254
0.000606075
-0.000569766
0.000633194
-0.000639734
0.000653766
-0.000709397
0.000666671
-0.000777976
0.000670976
-0.000844701
0.000665991
-0.000908832
0.000651285
-0.000969693
0.000626689
-0.0010267
0.000592293
-0.00107936
0.000548423
-0.00112733
0.000495613
-0.00117039
0.000434566
-0.00120844
0.000366101
-0.00124146
0.000291109
-0.00126949
0.000210499
-0.00129261
0.000125164
-0.00131081
3.59642e-05
-0.001324
-5.62832e-05
-0.00133194
-0.000150744
-0.00133414
-0.000246563
-0.00132989
-0.000342755
-0.00131818
-0.000438113
-0.00129776
-0.000531092
-0.00126717
-0.000619694
-0.00122488
-0.000701375
-0.00116949
-0.000773009
-0.0011
-0.000830957
-0.00101615
-0.000871271
-0.000918709
-0.000890078
-0.000809724
-0.000884125
-0.000692616
-0.000851438
-0.000571998
-0.00079196
-0.000453261
-0.000708015
-0.000341926
-0.000604428
-0.000242913
-0.000488197
-0.000159894
-0.000367766
-9.48973e-05
-0.00025207
-4.82189e-05
-0.00014964
-1.86201e-05
-6.80157e-05
-3.661e-06
-1.36165e-05
7.97248e-06
-1.21317e-05
8.48049e-05
-4.15413e-05
0.00021719
-8.27979e-05
0.000318366
-0.000132118
0.000396411
-0.000187069
0.000458993
-0.000246182
0.000511997
-0.000308566
0.000559097
-0.000373593
0.000601951
-0.000440702
0.000640725
-0.000509294
0.000674666
-0.000578698
0.000702598
-0.00064818
0.000723248
-0.000716961
0.000735453
-0.000784252
0.000738267
-0.000849277
0.000731016
-0.00091131
0.000713319
-0.000969712
0.000685091
-0.00102396
0.000646538
-0.00107366
0.000598129
-0.0011186
0.000540554
-0.00115871
0.000474671
-0.00119405
0.000401442
-0.0012248
0.000321863
-0.00125121
0.000236906
-0.00127352
0.000147476
-0.00129194
5.43834e-05
-0.00130656
-4.16612e-05
-0.0013173
-0.000140003
-0.00132384
-0.00024002
-0.00132558
-0.000341021
-0.00132155
-0.000442144
-0.00131043
-0.000542208
-0.00129057
-0.000639561
-0.00126002
-0.000731921
-0.00121678
-0.000816253
-0.001159
-0.000888735
-0.0010854
-0.000944865
-0.00099569
-0.000979792
-0.000890939
-0.000988876
-0.000773898
-0.000968479
-0.000649002
-0.000916856
-0.000522053
-0.000834964
-0.000399557
-0.000726924
-0.00028782
-0.000599934
-0.000192025
-0.000463562
-0.000115535
-0.00032856
-5.95978e-05
-0.000205577
-2.34654e-05
-0.000104148
-4.78108e-06
-3.23008e-05
3.19141e-06
-1.21974e-05
9.70023e-05
-4.18626e-05
0.000246856
-8.35514e-05
0.000360055
-0.000133404
0.000446264
-0.000188882
0.000514471
-0.000248412
0.000571527
-0.000311012
0.000621697
-0.000375987
0.000666926
-0.000442721
0.000707458
-0.000510575
0.00074252
-0.000578847
0.000770871
-0.00064678
0.000791181
-0.000713579
0.000802252
-0.000778443
0.000803132
-0.000840605
0.000793177
-0.000899364
0.000772078
-0.000954133
0.00073986
-0.00100447
0.000696875
-0.0010501
0.000643763
-0.00109095
0.000581397
-0.00112708
0.000510809
-0.00115875
0.000433111
-0.0011863
0.000349413
-0.00121015
0.000260752
-0.00123072
0.000168043
-0.00124838
7.20481e-05
-0.00126341
-2.66268e-05
-0.00127592
-0.000127503
-0.00128575
-0.000230184
-0.00129249
-0.000334286
-0.00129531
-0.000439316
-0.001293
-0.000544525
-0.00128383
-0.000648723
-0.00126569
-0.000750067
-0.00123609
-0.000845852
-0.00119247
-0.000932354
-0.00113253
-0.0010048
-0.00105475
-0.00105757
-0.000958937
-0.00108469
-0.000846726
-0.00108069
-0.000721877
-0.00104171
-0.000590166
-0.000966676
-0.000458806
-0.000858283
-0.000335454
-0.000723287
-0.000226996
-0.000572019
-0.000138481
-0.000417075
-7.24844e-05
-0.000271574
-2.90519e-05
-0.000147581
-6.10499e-06
-5.52478e-05
-2.91356e-06
-1.19696e-05
0.000108972
-4.12759e-05
0.000276162
-8.26359e-05
0.000401415
-0.000132203
0.00049583
-0.000187367
0.000569635
-0.000246457
0.000630616
-0.000308397
0.000683638
-0.000372416
0.000730945
-0.000437844
0.000772886
-0.000504001
0.000808677
-0.000570159
0.000837029
-0.00063554
0.000856562
-0.000699339
0.00086605
-0.000760759
0.000864552
-0.000819053
0.000851471
-0.000873566
0.000826592
-0.000923785
0.000790079
-0.000969364
0.000742455
-0.00101016
0.000684556
-0.00104621
0.000617452
-0.00107776
0.000542359
-0.00110519
0.00046054
-0.00112899
0.000373211
-0.00114971
0.000281471
-0.00116791
0.00018624
-0.00118409
8.82332e-05
-0.00119868
-1.20377e-05
-0.00121193
-0.00011425
-0.0012239
-0.000218214
-0.00123436
-0.000323824
-0.00124273
-0.000430946
-0.00124798
-0.000539277
-0.00124855
-0.000648152
-0.00124232
-0.000756299
-0.00122661
-0.000861563
-0.00119834
-0.000960622
-0.00115435
-0.00104879
-0.0010919
-0.00112003
-0.00100931
-0.00116727
-0.000906759
-0.00118324
-0.000786787
-0.00116168
-0.000654576
-0.00109889
-0.000517585
-0.000995275
-0.000384585
-0.000856287
-0.000264231
-0.000692374
-0.000163555
-0.00051775
-8.68756e-05
-0.000348254
-3.54179e-05
-0.000199038
-7.6532e-06
-8.30125e-05
-1.05668e-05
-1.14477e-05
0.000120419
-3.97751e-05
0.000304489
-8.00371e-05
0.000441677
-0.000128494
0.000544287
-0.000182504
0.000623645
-0.000240306
0.000688418
-0.000300727
0.000744059
-0.000362918
0.000793136
-0.000426152
0.00083612
-0.000489714
0.000872239
-0.000552853
0.000900168
-0.000614783
0.000918492
-0.000674703
0.000925971
-0.000731838
0.000921686
-0.000785481
0.000905114
-0.000835045
0.000876156
-0.000880105
0.000835139
-0.00092043
0.000782781
-0.000955996
0.000720122
-0.000986982
0.000648438
-0.00101375
0.000569123
-0.00103679
0.00048358
-0.0010567
0.000393121
-0.00107411
0.000298889
-0.00108968
0.000201803
-0.00110398
0.000102536
-0.00111753
1.51263e-06
-0.00113071
-0.00010107
-0.00114373
-0.00020519
-0.00115658
-0.000310975
-0.00116893
-0.000418598
-0.00118004
-0.000528167
-0.00118865
-0.000639542
-0.00119286
-0.000752092
-0.00119005
-0.000864369
-0.00117694
-0.000973727
-0.00114978
-0.00107595
-0.00110477
-0.00116504
-0.00103877
-0.00123327
-0.000950221
-0.0012718
-0.000839983
-0.00127191
-0.000712017
-0.00122685
-0.000573401
-0.00113389
-0.000433578
-0.00099611
-0.000302829
-0.000823122
-0.000190368
-0.000630212
-0.000102659
-0.000435963
-4.25562e-05
-0.000259141
-9.43446e-06
-0.000116134
-2.00012e-05
-1.06433e-05
0.000131063
-3.73878e-05
0.000331234
-7.57964e-05
0.000480086
-0.000122334
0.000590825
-0.00017437
0.000675681
-0.000230064
0.000744111
-0.000288147
0.000802142
-0.00034769
0.000852679
-0.000407912
0.000896342
-0.000468068
0.000932395
-0.000527398
0.000959498
-0.000585119
0.000976214
-0.000640456
0.000981308
-0.000692675
0.000973905
-0.000741134
0.000953573
-0.000785332
0.000920354
-0.000824948
0.000874756
-0.000859868
0.0008177
-0.000890186
0.000750441
-0.000916194
0.000674447
-0.000938348
0.000591277
-0.000957224
0.000502456
-0.000973471
0.000409369
-0.000987767
0.000313185
-0.00100078
0.000214812
-0.00101312
0.000114878
-0.00102534
1.37377e-05
-0.0010379
-8.85086e-05
-0.00105113
-0.00019197
-0.00106516
-0.000296935
-0.00107995
-0.000403817
-0.00109506
-0.000513057
-0.00110961
-0.000624985
-0.00112211
-0.000739599
-0.00113024
-0.000856233
-0.00113085
-0.000973117
-0.00111994
-0.00108686
-0.001093
-0.00119198
-0.00104561
-0.00128066
-0.000974414
-0.00134299
-0.000878279
-0.00136805
-0.000759348
-0.00134578
-0.000623601
-0.00126964
-0.00048051
-0.0011392
-0.000341618
-0.000962014
-0.000218333
-0.000753497
-0.000119611
-0.000534685
-5.04135e-05
-0.000328338
-1.14464e-05
-0.000155101
-3.14475e-05
-9.58002e-06
0.000140643
-3.41738e-05
0.000355827
-7.00091e-05
0.000515921
-0.000113852
0.000634668
-0.000163131
0.00072496
-0.000215944
0.000796924
-0.00027093
0.000857129
-0.00032708
0.000908829
-0.000383563
0.000952825
-0.000439613
0.000988445
-0.000494474
0.00101436
-0.00054739
0.00102913
-0.000597628
0.00103155
-0.00064452
0.0010208
-0.000687509
0.000996562
-0.000726195
0.000959041
-0.000760369
0.00090893
-0.00079003
0.000847361
-0.000815378
0.000775789
-0.000836795
0.000695863
-0.0008548
0.000609283
-0.00087001
0.000517666
-0.000883088
0.000422447
-0.000894703
0.000324801
-0.000905501
0.000225609
-0.000916078
0.000125456
-0.000926975
2.46344e-05
-0.000938661
-7.68226e-05
-0.000951522
-0.000179108
-0.000965842
-0.000282616
-0.000981749
-0.00038791
-0.000999136
-0.00049567
-0.00101752
-0.000606597
-0.00103588
-0.000721239
-0.00105242
-0.000839695
-0.00106438
-0.000961163
-0.0010679
-0.00108333
-0.00105819
-0.0012017
-0.00102989
-0.00130895
-0.000978071
-0.00139481
-0.000899453
-0.00144667
-0.000793921
-0.00145132
-0.000665647
-0.00139791
-0.000523345
-0.0012815
-0.000379232
-0.00110613
-0.000246702
-0.000886028
-0.000137409
-0.000643977
-5.88928e-05
-0.000406855
-1.3677e-05
-0.000200317
-4.51245e-05
-8.29209e-06
0.000148935
-3.02228e-05
0.000377758
-6.28201e-05
0.000548518
-0.000103245
0.000675093
-0.000149038
0.000770752
-0.000198259
0.000846145
-0.000249462
0.000908332
-0.00030156
0.000960928
-0.000353681
0.00100495
-0.000405047
0.00103981
-0.000454924
0.00106424
-0.000502599
0.00107681
-0.000547407
0.00107635
-0.000588764
0.00106215
-0.000626213
0.00103401
-0.000659467
0.000992294
-0.000688427
0.00093789
-0.000713194
0.000872129
-0.000734057
0.000796652
-0.000751456
0.000713262
-0.000765945
0.000623772
-0.000778143
0.000529864
-0.000788689
0.000432993
-0.00079821
0.000334321
-0.000807293
0.000234693
-0.00081648
0.000134643
-0.000826258
3.44131e-05
-0.000837073
-6.60078e-05
-0.000849322
-0.000166859
-0.000863356
-0.000268582
-0.000879449
-0.000371817
-0.000897739
-0.000477379
-0.000918114
-0.000586222
-0.000940037
-0.000699316
-0.000962306
-0.000817426
-0.00098277
-0.000940699
-0.000998071
-0.00106803
-0.00100354
-0.00119623
-0.000993389
-0.0013191
-0.000961464
-0.00142674
-0.000902503
-0.00150563
-0.000813894
-0.00153992
-0.000697392
-0.00151441
-0.000560135
-0.00141876
-0.00041423
-0.00125203
-0.000274607
-0.00102565
-0.000155646
-0.000762938
-6.78568e-05
-0.000494644
-1.6104e-05
-0.00025207
-6.12285e-05
-6.82237e-06
0.000155757
-2.56503e-05
0.000396586
-5.4418e-05
0.000577286
-9.07693e-05
0.000711444
-0.000132414
0.000812397
-0.000177405
0.000891136
-0.000224221
0.000955148
-0.000271707
0.00100841
-0.000318951
0.00105219
-0.000365181
0.00108604
-0.000409695
0.00110875
-0.000451846
0.00111896
-0.000491054
0.00111556
-0.000526835
0.00109794
-0.000558845
0.00106602
-0.000586907
0.00102036
-0.000611027
0.000962011
-0.000631396
0.000892497
-0.000648361
0.000813617
-0.000662397
0.000727298
-0.000674058
0.000635434
-0.000683937
0.000539743
-0.000692622
0.000441678
-0.000700668
0.000342367
-0.000708585
0.00024261
-0.000716833
0.000142891
-0.000725828
4.34084e-05
-0.000735959
-5.58776e-05
-0.000747595
-0.000155223
-0.000761104
-0.000255074
-0.00077684
-0.000356081
-0.00079511
-0.000459109
-0.000816093
-0.000565239
-0.000839685
-0.000675724
-0.000865273
-0.000791839
-0.00089141
-0.000914562
-0.000915459
-0.00104398
-0.00093328
-0.00117841
-0.000939168
-0.00131321
-0.000926271
-0.00143964
-0.000887708
-0.00154419
-0.000818405
-0.00160923
-0.000717309
-0.00161551
-0.000589213
-0.00154686
-0.000445224
-0.00139602
-0.000301138
-0.00116974
-0.000173855
-0.000890222
-7.71349e-05
-0.000591364
-1.86958e-05
-0.000310509
-7.99243e-05
-5.22019e-06
0.000160977
-2.0592e-05
0.000411958
-4.50279e-05
0.000601722
-7.67321e-05
0.000743149
-0.000113645
0.000849309
-0.000153847
0.000931338
-0.000195761
0.000997063
-0.000238171
0.00105082
-0.000280134
0.00109415
-0.000320891
0.0011268
-0.00035979
0.00114765
-0.000396262
0.00115543
-0.000429828
0.00114913
-0.000460116
0.00112822
-0.000486896
0.0010928
-0.000510099
0.00104356
-0.000529825
0.000981736
-0.000546328
0.000909001
-0.000559997
0.000827285
-0.00057131
0.000738611
-0.000580797
0.000644921
-0.000588999
0.000547945
-0.000596432
0.00044911
-0.000603569
0.000349505
-0.000610831
0.000249872
-0.000618588
0.000150648
-0.000627173
5.19937e-05
-0.000636903
-4.61475e-05
-0.000648098
-0.000144028
-0.000661102
-0.000242071
-0.00067629
-0.000340892
-0.000694065
-0.000441334
-0.0007148
-0.000544505
-0.000738727
-0.000651797
-0.000765741
-0.000764824
-0.00079509
-0.000885213
-0.00082496
-0.00101411
-0.000852022
-0.00115135
-0.000871102