/*--------------------------------*- C++ -*----------------------------------*\
  =========                 |
  \\      /  F ield         | OpenFOAM: The Open Source CFD Toolbox
   \\    /   O peration     | Website:  https://openfoam.org
    \\  /    A nd           | Version:  7
     \\/     M anipulation  |
\*---------------------------------------------------------------------------*/
FoamFile
{
    version     2.0;
    format      ascii;
    class       volVectorField;
    location    "500";
    object      U;
}
// * * * * * * * * * * * * * * * * * * * * * * * * * * * * * * * * * * * * * //

dimensions      [0 1 -1 0 0 0 0];

internalField   nonuniform List<vector> 
2500
(
(0.00010987 -0.000111602 0)
(0.000488226 -0.000151331 0)
(0.000833504 -0.000126418 0)
(0.000999017 -7.91956e-05 0)
(0.000908835 -3.12494e-05 0)
(0.000558178 1.15334e-05 0)
(-3.54254e-05 4.82454e-05 0)
(-0.000852189 8.02624e-05 0)
(-0.00187683 0.000109749 0)
(-0.00309988 0.000138684 0)
(-0.0045162 0.000168412 0)
(-0.00612196 0.000199526 0)
(-0.00791145 0.000231905 0)
(-0.009874 0.000264794 0)
(-0.0119914 0.000296905 0)
(-0.014236 0.000326497 0)
(-0.0165691 0.000351459 0)
(-0.0189409 0.000369408 0)
(-0.02129 0.000377803 0)
(-0.0235444 0.000374114 0)
(-0.0256242 0.000356025 0)
(-0.0274433 0.00032168 0)
(-0.0289144 0.00026995 0)
(-0.029953 0.000200709 0)
(-0.0304835 0.0001151 0)
(-0.0304442 1.56716e-05 0)
(-0.0297939 -9.36693e-05 0)
(-0.0285161 -0.000207607 0)
(-0.0266234 -0.000319778 0)
(-0.0241595 -0.000423187 0)
(-0.0211994 -0.000510774 0)
(-0.0178474 -0.00057609 0)
(-0.0142316 -0.000613992 0)
(-0.0104974 -0.000621262 0)
(-0.00679819 -0.000597047 0)
(-0.00328558 -0.000543012 0)
(-9.88472e-05 -0.000463144 0)
(0.00264418 -0.000363513 0)
(0.00485418 -0.000251638 0)
(0.0064747 -0.000135257 0)
(0.00748382 -2.14647e-05 0)
(0.00789289 8.37544e-05 0)
(0.00774295 0.000175856 0)
(0.00710045 0.000251531 0)
(0.00605435 0.000307788 0)
(0.00471648 0.000340457 0)
(0.0032274 0.000342366 0)
(0.00177471 0.000300706 0)
(0.000625222 0.000192003 0)
(2.97856e-05 2.97637e-05 0)
(0.00015529 -0.00049632 0)
(0.000689721 -0.000692442 0)
(0.00098206 -0.000439567 0)
(0.000781811 9.8338e-06 0)
(-4.67987e-05 0.000514747 0)
(-0.00152519 0.00100969 0)
(-0.00363057 0.00147264 0)
(-0.00632978 0.00190378 0)
(-0.00959278 0.00231167 0)
(-0.0133957 0.00270499 0)
(-0.0177177 0.00308822 0)
(-0.0225355 0.00346001 0)
(-0.0278159 0.00381299 0)
(-0.03351 0.00413446 0)
(-0.0395477 0.00440738 0)
(-0.0458342 0.00461165 0)
(-0.0522481 0.00472541 0)
(-0.058642 0.00472652 0)
(-0.0648444 0.0045942 0)
(-0.0706645 0.0043108 0)
(-0.0758985 0.00386368 0)
(-0.0803381 0.00324705 0)
(-0.0837808 0.00246372 0)
(-0.0860409 0.00152641 0)
(-0.0869614 0.000458637 0)
(-0.0864251 -0.000705229 0)
(-0.084366 -0.00192107 0)
(-0.0807762 -0.00313649 0)
(-0.0757118 -0.00429382 0)
(-0.0692952 -0.00533359 0)
(-0.0617128 -0.00619866 0)
(-0.0532096 -0.00683875 0)
(-0.0440786 -0.00721483 0)
(-0.0346469 -0.00730293 0)
(-0.0252587 -0.00709683 0)
(-0.0162562 -0.00660921 0)
(-0.0079596 -0.00587096 0)
(-0.000648598 -0.00492881 0)
(0.00545354 -0.00384144 0)
(0.0101918 -0.00267383 0)
(0.013486 -0.00149143 0)
(0.015332 -0.000355739 0)
(0.0157991 0.000678409 0)
(0.0150237 0.00156305 0)
(0.0132051 0.00225261 0)
(0.0106035 0.00269648 0)
(0.00754372 0.00282915 0)
(0.00443503 0.00256336 0)
(0.00181876 0.00181071 0)
(0.00019361 0.000627227 0)
(0.00013022 -0.000843286 0)
(0.000379348 -0.000975796 0)
(6.84527e-05 -0.000210706 0)
(-0.00105071 0.000958047 0)
(-0.00310487 0.0022546 0)
(-0.00611492 0.00354329 0)
(-0.0100573 0.00477278 0)
(-0.0148956 0.00593667 0)
(-0.020593 0.00704593 0)
(-0.0271139 0.00811151 0)
(-0.0344194 0.00913492 0)
(-0.0424587 0.0101044 0)
(-0.0511609 0.0109947 0)
(-0.0604273 0.0117685 0)
(-0.0701256 0.0123797 0)
(-0.0800873 0.0127765 0)
(-0.0901074 0.0129053 0)
(-0.0999473 0.0127149 0)
(-0.109341 0.0121604 0)
(-0.118003 0.011208 0)
(-0.125641 0.00983858 0)
(-0.131968 0.00805181 0)
(-0.136715 0.00586872 0)
(-0.139646 0.00333368 0)
(-0.140573 0.000514912 0)
(-0.139368 -0.00249668 0)
(-0.135973 -0.00559074 0)
(-0.130406 -0.00864237 0)
(-0.122767 -0.0115183 0)
(-0.113238 -0.0140845 0)
(-0.102078 -0.016214 0)
(-0.089617 -0.0177963 0)
(-0.0762457 -0.0187458 0)
(-0.0623967 -0.019009 0)
(-0.048527 -0.0185703 0)
(-0.035096 -0.0174546 0)
(-0.0225417 -0.0157266 0)
(-0.0112579 -0.0134868 0)
(-0.00157239 -0.0108643 0)
(0.00627003 -0.0080065 0)
(0.0121203 -0.0050685 0)
(0.0159321 -0.00220191 0)
(0.017763 0.00045138 0)
(0.0177704 0.00276134 0)
(0.0162075 0.00460434 0)
(0.0134182 0.00585184 0)
(0.00983498 0.00635614 0)
(0.00599224 0.00594213 0)
(0.00259174 0.00443358 0)
(0.000303885 0.00178785 0)
(6.79213e-05 -0.000955762 0)
(-0.000257078 -0.0006239 0)
(-0.00156385 0.000999588 0)
(-0.00402754 0.00320121 0)
(-0.00770877 0.00558533 0)
(-0.0126027 0.0079555 0)
(-0.0186766 0.0102351 0)
(-0.0258896 0.0124107 0)
(-0.0341997 0.0144918 0)
(-0.0435601 0.0164845 0)
(-0.0539109 0.0183779 0)
(-0.0651694 0.0201387 0)
(-0.0772204 0.0217115 0)
(-0.0899094 0.0230226 0)
(-0.103038 0.0239855 0)
(-0.116364 0.0245076 0)
(-0.129605 0.0244976 0)
(-0.142444 0.023873 0)
(-0.15454 0.0225669 0)
(-0.165542 0.0205355 0)
(-0.1751 0.0177638 0)
(-0.182883 0.0142702 0)
(-0.188594 0.0101095 0)
(-0.191981 0.00537429 0)
(-0.192853 0.000193854 0)
(-0.191088 -0.00526874 0)
(-0.186642 -0.0108229 0)
(-0.179557 -0.0162593 0)
(-0.169957 -0.0213585 0)
(-0.158056 -0.0259019 0)
(-0.144149 -0.0296841 0)
(-0.128609 -0.0325257 0)
(-0.111875 -0.0342854 0)
(-0.0944411 -0.0348722 0)
(-0.0768319 -0.0342535 0)
(-0.0595853 -0.032461 0)
(-0.0432257 -0.029591 0)
(-0.0282385 -0.0257997 0)
(-0.0150438 -0.0212937 0)
(-0.00397415 -0.0163158 0)
(0.00474398 -0.0111288 0)
(0.0110028 -0.00599968 0)
(0.0148206 -0.00118514 0)
(0.0163417 0.00307231 0)
(0.0158315 0.0065422 0)
(0.0136721 0.00899226 0)
(0.0103541 0.010172 0)
(0.00648796 0.00980024 0)
(0.00288371 0.00757839 0)
(0.000344923 0.00326296 0)
(-1.41504e-05 -0.000678247 0)
(-0.00111083 0.000676496 0)
(-0.00370212 0.00356487 0)
(-0.00783616 0.007111 0)
(-0.0134608 0.01084 0)
(-0.020522 0.0145223 0)
(-0.0289662 0.0180716 0)
(-0.0387438 0.0214725 0)
(-0.0498052 0.02473 0)
(-0.0620904 0.0278374 0)
(-0.0755163 0.0307602 0)
(-0.0899645 0.0334313 0)
(-0.105272 0.0357535 0)
(-0.121229 0.0376066 0)
(-0.137571 0.0388569 0)
(-0.153992 0.0393677 0)
(-0.170142 0.0390108 0)
(-0.185646 0.0376773 0)
(-0.200111 0.0352871 0)
(-0.213148 0.0317978 0)
(-0.22438 0.0272112 0)
(-0.233459 0.0215778 0)
(-0.240082 0.0149979 0)
(-0.243998 0.00762194 0)
(-0.24502 -0.000352971 0)
(-0.243031 -0.00868752 0)
(-0.237993 -0.0171095 0)
(-0.229946 -0.0253243 0)
(-0.219015 -0.0330257 0)
(-0.205412 -0.039909 0)
(-0.189435 -0.0456861 0)
(-0.171468 -0.0501018 0)
(-0.151967 -0.0529506 0)
(-0.131457 -0.0540923 0)
(-0.110511 -0.0534657 0)
(-0.089728 -0.051097 0)
(-0.0697084 -0.0471041 0)
(-0.0510248 -0.0416923 0)
(-0.0341914 -0.0351442 0)
(-0.0196352 -0.027802 0)
(-0.00767132 -0.0200465 0)
(0.00151568 -0.0122746 0)
(0.00788421 -0.00487995 0)
(0.011541 0.00175939 0)
(0.0127371 0.00728222 0)
(0.0118633 0.0113309 0)
(0.00943951 0.0135328 0)
(0.00612391 0.0134814 0)
(0.00279425 0.0107273 0)
(0.000341496 0.00478859 0)
(-0.000110659 8.29163e-05 0)
(-0.00211799 0.00313608 0)
(-0.00620435 0.00775131 0)
(-0.0122485 0.0129647 0)
(-0.0200493 0.0182786 0)
(-0.0294848 0.0234698 0)
(-0.0404703 0.0284657 0)
(-0.0529418 0.0332584 0)
(-0.0668387 0.0378471 0)
(-0.082085 0.0422043 0)
(-0.0985715 0.0462606 0)
(-0.116143 0.0499036 0)
(-0.134589 0.0529847 0)
(-0.153646 0.0553307 0)
(-0.172996 0.0567582 0)
(-0.192277 0.0570887 0)
(-0.211094 0.0561633 0)
(-0.229034 0.0538558 0)
(-0.245678 0.0500847 0)
(-0.260621 0.0448209 0)
(-0.273481 0.0380939 0)
(-0.283913 0.0299938 0)
(-0.291616 0.0206717 0)
(-0.296342 0.0103366 0)
(-0.297903 -0.000748919 0)
(-0.296174 -0.0122744 0)
(-0.291098 -0.0238916 0)
(-0.282691 -0.0352256 0)
(-0.27105 -0.0458857 0)
(-0.256357 -0.05548 0)
(-0.238884 -0.0636328 0)
(-0.218994 -0.0700038 0)
(-0.197142 -0.0743095 0)
(-0.173866 -0.0763443 0)
(-0.149772 -0.0759996 0)
(-0.125517 -0.0732789 0)
(-0.101779 -0.0683058 0)
(-0.079223 -0.0613235 0)
(-0.0584695 -0.0526845 0)
(-0.0400544 -0.0428317 0)
(-0.0243985 -0.0322714 0)
(-0.0117806 -0.0215445 0)
(-0.00232006 -0.0111988 0)
(0.00403289 -0.00176941 0)
(0.00749766 0.00622699 0)
(0.00845413 0.0122878 0)
(0.00743424 0.0158992 0)
(0.00512503 0.0165115 0)
(0.00243852 0.0135118 0)
(0.000311448 0.00619047 0)
(-0.000218419 0.0013935 0)
(-0.00323512 0.00690362 0)
(-0.00896293 0.0137468 0)
(-0.0170793 0.0209566 0)
(-0.0272083 0.0280804 0)
(-0.0391462 0.0349498 0)
(-0.0527703 0.0415343 0)
(-0.0679968 0.0478457 0)
(-0.0847506 0.0538773 0)
(-0.102937 0.0595734 0)
(-0.122419 0.0648201 0)
(-0.143004 0.0694503 0)
(-0.164441 0.0732574 0)
(-0.186418 0.0760132 0)
(-0.208576 0.0774872 0)
(-0.230517 0.0774655 0)
(-0.251818 0.0757681 0)
(-0.272051 0.0722635 0)
(-0.290793 0.0668789 0)
(-0.307641 0.0596076 0)
(-0.322221 0.0505122 0)
(-0.334196 0.0397243 0)
(-0.34327 0.0274422 0)
(-0.349192 0.0139272 0)
(-0.351758 -0.000502054 0)
(-0.350819 -0.0154747 0)
(-0.346281 -0.0305761 0)
(-0.338113 -0.0453578 0)
(-0.32636 -0.0593481 0)
(-0.311148 -0.0720667 0)
(-0.292698 -0.0830433 0)
(-0.271332 -0.0918399 0)
(-0.24748 -0.0980772 0)
(-0.221674 -0.101462 0)
(-0.194544 -0.101814 0)
(-0.166799 -0.0990888 0)
(-0.139195 -0.0933942 0)
(-0.112503 -0.0849941 0)
(-0.0874643 -0.0743016 0)
(-0.0647468 -0.0618584 0)
(-0.0449002 -0.0483033 0)
(-0.0283216 -0.0343357 0)
(-0.0152295 -0.0206777 0)
(-0.00564939 -0.00804521 0)
(0.000588834 0.0028684 0)
(0.00384212 0.0113908 0)
(0.00464228 0.0168482 0)
(0.00369242 0.0185352 0)
(0.00191585 0.0156745 0)
(0.000268559 0.00736012 0)
(-0.000334643 0.00330131 0)
(-0.00442583 0.0120804 0)
(-0.0118839 0.0216725 0)
(-0.0221624 0.0312042 0)
(-0.0346934 0.0403452 0)
(-0.0491841 0.0490358 0)
(-0.0654686 0.0573197 0)
(-0.0834399 0.0652413 0)
(-0.103006 0.0727891 0)
(-0.12405 0.0798733 0)
(-0.146408 0.0863274 0)
(-0.169854 0.0919239 0)
(-0.194099 0.096396 0)
(-0.2188 0.0994627 0)
(-0.243568 0.100853 0)
(-0.267986 0.100327 0)
(-0.291626 0.0976945 0)
(-0.31406 0.0928289 0)
(-0.334875 0.0856743 0)
(-0.353682 0.0762502 0)
(-0.370119 0.0646517 0)
(-0.383859 0.0510471 0)
(-0.394605 0.0356737 0)
(-0.402096 0.0188334 0)
(-0.406104 0.000888512 0)
(-0.406445 -0.0177422 0)
(-0.402975 -0.0365896 0)
(-0.395605 -0.0551401 0)
(-0.384308 -0.0728459 0)
(-0.36914 -0.0891379 0)
(-0.350247 -0.103445 0)
(-0.327886 -0.11522 0)
(-0.302434 -0.123966 0)
(-0.274395 -0.129278 0)
(-0.244401 -0.130872 0)
(-0.213197 -0.128624 0)
(-0.181616 -0.122594 0)
(-0.15054 -0.113042 0)
(-0.12085 -0.100425 0)
(-0.0933704 -0.0853765 0)
(-0.0688118 -0.0686746 0)
(-0.0477224 -0.0511922 0)
(-0.0304501 -0.0338494 0)
(-0.0171209 -0.0175696 0)
(-0.007633 -0.00325208 0)
(-0.00166522 0.00823519 0)
(0.00130354 0.0160402 0)
(0.00198521 0.019289 0)
(0.00130296 0.0170438 0)
(0.000223052 0.00823665 0)
(-0.000456212 0.00583683 0)
(-0.00565387 0.0187228 0)
(-0.0148756 0.0315859 0)
(-0.0273366 0.0437518 0)
(-0.0422688 0.0550961 0)
(-0.0592869 0.0657255 0)
(-0.0781796 0.0757906 0)
(-0.0988148 0.0853825 0)
(-0.12108 0.0944862 0)
(-0.144838 0.102973 0)
(-0.169898 0.11062 0)
(-0.196004 0.117137 0)
(-0.222841 0.122197 0)
(-0.250043 0.125475 0)
(-0.277209 0.126666 0)
(-0.303918 0.125515 0)
(-0.329748 0.121834 0)
(-0.354286 0.115505 0)
(-0.377135 0.106494 0)
(-0.397924 0.0948454 0)
(-0.416306 0.0806834 0)
(-0.431958 0.0642041 0)
(-0.444583 0.0456735 0)
(-0.453907 0.0254223 0)
(-0.459679 0.00384365 0)
(-0.461678 -0.0186087 0)
(-0.459714 -0.0414229 0)
(-0.453634 -0.064032 0)
(-0.443338 -0.0858204 0)
(-0.428796 -0.106135 0)
(-0.410061 -0.124304 0)
(-0.387296 -0.139659 0)
(-0.360795 -0.151573 0)
(-0.330995 -0.159497 0)
(-0.298495 -0.163012 0)
(-0.264048 -0.161871 0)
(-0.228541 -0.156044 0)
(-0.192964 -0.145748 0)
(-0.158347 -0.131455 0)
(-0.125698 -0.113876 0)
(-0.0959272 -0.0939273 0)
(-0.0697759 -0.0726716 0)
(-0.0477645 -0.051254 0)
(-0.0301567 -0.0308399 0)
(-0.0169468 -0.0125699 0)
(-0.00786888 0.00246062 0)
(-0.00242087 0.0131946 0)
(0.000111651 0.018578 0)
(0.000651519 0.0175129 0)
(0.00018152 0.00879355 0)
(-0.000579238 0.00901168 0)
(-0.00688024 0.0268413 0)
(-0.0178435 0.0434824 0)
(-0.0324403 0.058573 0)
(-0.0497012 0.0722825 0)
(-0.0691491 0.0849428 0)
(-0.0905272 0.0968443 0)
(-0.113677 0.108138 0)
(-0.138465 0.118808 0)
(-0.164731 0.128685 0)
(-0.192261 0.137485 0)
(-0.220778 0.144858 0)
(-0.249947 0.150424 0)
(-0.279391 0.153818 0)
(-0.308707 0.154715 0)
(-0.337482 0.152853 0)
(-0.365308 0.148048 0)
(-0.39179 0.140201 0)
(-0.416551 0.129297 0)
(-0.439236 0.115404 0)
(-0.459511 0.0986672 0)
(-0.477064 0.0793044 0)
(-0.491599 0.0576013 0)
(-0.502839 0.0339084 0)
(-0.510521 0.00863891 0)
(-0.5144 -0.0177303 0)
(-0.514252 -0.0446584 0)
(-0.509873 -0.0715407 0)
(-0.501091 -0.0977091 0)
(-0.487783 -0.12244 0)
(-0.469897 -0.144967 0)
(-0.447475 -0.164506 0)
(-0.420685 -0.180284 0)
(-0.389855 -0.19159 0)
(-0.355495 -0.197829 0)
(-0.318314 -0.198583 0)
(-0.279215 -0.193677 0)
(-0.239266 -0.18323 0)
(-0.199646 -0.167678 0)
(-0.161562 -0.147778 0)
(-0.126161 -0.124575 0)
(-0.094432 -0.0993296 0)
(-0.0671253 -0.0734426 0)
(-0.0446953 -0.0483634 0)
(-0.0272758 -0.0255202 0)
(-0.0146852 -0.00627909 0)
(-0.00645626 0.00806231 0)
(-0.00187454 0.0162485 0)
(-1.21157e-05 0.0170146 0)
(0.000147181 0.00902505 0)
(-0.000699018 0.0128165 0)
(-0.00806274 0.0363993 0)
(-0.0206895 0.0572956 0)
(-0.0373101 0.0755734 0)
(-0.0567596 0.0917844 0)
(-0.0784727 0.106543 0)
(-0.102147 0.120311 0)
(-0.127597 0.133312 0)
(-0.154668 0.145532 0)
(-0.183178 0.15676 0)
(-0.212893 0.166656 0)
(-0.243518 0.174809 0)
(-0.274708 0.180795 0)
(-0.306082 0.184218 0)
(-0.337242 0.184739 0)
(-0.367788 0.182098 0)
(-0.397326 0.17612 0)
(-0.425479 0.166724 0)
(-0.451889 0.153914 0)
(-0.476217 0.137779 0)
(-0.498147 0.118481 0)
(-0.517382 0.0962586 0)
(-0.533643 0.0714117 0)
(-0.546667 0.0443055 0)
(-0.556199 0.0153657 0)
(-0.561996 -0.0149191 0)
(-0.563822 -0.0459946 0)
(-0.561441 -0.0772394 0)
(-0.554623 -0.107956 0)
(-0.54316 -0.137373 0)
(-0.526882 -0.164655 0)
(-0.505689 -0.188911 0)
(-0.479588 -0.209228 0)
(-0.448739 -0.224718 0)
(-0.413503 -0.234578 0)
(-0.374473 -0.238169 0)
(-0.332497 -0.235103 0)
(-0.28867 -0.225322 0)
(-0.244282 -0.209157 0)
(-0.200743 -0.187351 0)
(-0.159465 -0.161041 0)
(-0.121741 -0.131686 0)
(-0.088619 -0.100967 0)
(-0.0608193 -0.0706661 0)
(-0.0386778 -0.0425599 0)
(-0.0221436 -0.0183445 0)
(-0.0108106 0.000392288 0)
(-0.00397187 0.012156 0)
(-0.00068539 0.0154948 0)
(0.000120401 0.00893283 0)
(-0.000810232 0.0172191 0)
(-0.00915702 0.0473116 0)
(-0.0233142 0.0728989 0)
(-0.0417846 0.0945945 0)
(-0.0632199 0.113417 0)
(-0.0869717 0.130317 0)
(-0.112693 0.145957 0)
(-0.140171 0.160647 0)
(-0.169227 0.174377 0)
(-0.199661 0.186896 0)
(-0.231219 0.19781 0)
(-0.263595 0.206655 0)
(-0.296437 0.212968 0)
(-0.329364 0.216331 0)
(-0.361986 0.216398 0)
(-0.393912 0.212911 0)
(-0.424762 0.205712 0)
(-0.454173 0.194733 0)
(-0.481804 0.180002 0)
(-0.507338 0.161626 0)
(-0.530482 0.139792 0)
(-0.550969 0.114756 0)
(-0.568555 0.0868364 0)
(-0.583016 0.0564118 0)
(-0.594134 0.0239154 0)
(-0.601694 -0.0101635 0)
(-0.605477 -0.0452746 0)
(-0.605245 -0.0808036 0)
(-0.600731 -0.116054 0)
(-0.591657 -0.150245 0)
(-0.577743 -0.182501 0)
(-0.558736 -0.21186 0)
(-0.534454 -0.237289 0)
(-0.504842 -0.257725 0)
(-0.470037 -0.272139 0)
(-0.430435 -0.279625 0)
(-0.386736 -0.27951 0)
(-0.33997 -0.271466 0)
(-0.291476 -0.255616 0)
(-0.242826 -0.232598 0)
(-0.195705 -0.203571 0)
(-0.151751 -0.170163 0)
(-0.112394 -0.134346 0)
(-0.078706 -0.0982843 0)
(-0.0513136 -0.064177 0)
(-0.0303663 -0.0341307 0)
(-0.0155633 -0.0100961 0)
(-0.00622358 0.00613617 0)
(-0.00138572 0.0128883 0)
(9.91563e-05 0.00851426 0)
(-0.000907282 0.0221635 0)
(-0.0101185 0.0594447 0)
(-0.02562 0.0901081 0)
(-0.0457086 0.115418 0)
(-0.0688703 0.136936 0)
(-0.0943792 0.155998 0)
(-0.121845 0.173494 0)
(-0.151024 0.18983 0)
(-0.181716 0.205006 0)
(-0.213701 0.218735 0)
(-0.24671 0.230571 0)
(-0.280425 0.240004 0)
(-0.314489 0.24654 0)
(-0.348522 0.249741 0)
(-0.382138 0.249259 0)
(-0.414953 0.244843 0)
(-0.446595 0.236349 0)
(-0.476715 0.223732 0)
(-0.50499 0.207041 0)
(-0.531127 0.186414 0)
(-0.554873 0.162066 0)
(-0.576006 0.134282 0)
(-0.59434 0.103403 0)
(-0.609713 0.069825 0)
(-0.621972 0.0339841 0)
(-0.630959 -0.00363846 0)
(-0.636502 -0.0425133 0)
(-0.63839 -0.0820593 0)
(-0.636354 -0.121618 0)
(-0.630071 -0.160436 0)
(-0.619171 -0.197651 0)
(-0.603259 -0.232274 0)
(-0.581955 -0.263194 0)
(-0.554956 -0.289203 0)
(-0.52212 -0.309048 0)
(-0.483556 -0.321527 0)
(-0.439708 -0.325617 0)
(-0.391426 -0.320622 0)
(-0.339984 -0.306331 0)
(-0.287035 -0.283142 0)
(-0.2345 -0.252125 0)
(-0.184383 -0.214996 0)
(-0.138557 -0.174003 0)
(-0.0985516 -0.131732 0)
(-0.0653948 -0.0908832 0)
(-0.0395339 -0.0540783 0)
(-0.0208437 -0.0237328 0)
(-0.00870537 -0.00201737 0)
(-0.00214514 0.00909946 0)
(7.97297e-05 0.00775322 0)
(-0.000984693 0.02757 0)
(-0.0109049 0.0726193 0)
(-0.0275159 0.108686 0)
(-0.0489395 0.137772 0)
(-0.0735185 0.162045 0)
(-0.100456 0.183269 0)
(-0.129317 0.202583 0)
(-0.159827 0.2205 0)
(-0.191761 0.237035 0)
(-0.22488 0.25187 0)
(-0.2589 0.264511 0)
(-0.293492 0.274409 0)
(-0.328293 0.281039 0)
(-0.362921 0.283952 0)
(-0.396988 0.282797 0)
(-0.430113 0.277336 0)
(-0.461933 0.267439 0)
(-0.492109 0.253091 0)
(-0.520342 0.234375 0)
(-0.546376 0.211467 0)
(-0.570005 0.184626 0)
(-0.591075 0.154175 0)
(-0.609472 0.120491 0)
(-0.625119 0.0839878 0)
(-0.637948 0.0451057 0)
(-0.647883 0.00430947 0)
(-0.654822 -0.0379088 0)
(-0.658615 -0.0810226 0)
(-0.659022 -0.124446 0)
(-0.655713 -0.167502 0)
(-0.648265 -0.209389 0)
(-0.636171 -0.249154 0)
(-0.618869 -0.28567 0)
(-0.595811 -0.317637 0)
(-0.56654 -0.343614 0)
(-0.530809 -0.362109 0)
(-0.488702 -0.371706 0)
(-0.440753 -0.37125 0)
(-0.388023 -0.360059 0)
(-0.332115 -0.338123 0)
(-0.275091 -0.306253 0)
(-0.219286 -0.266123 0)
(-0.167055 -0.220182 0)
(-0.12048 -0.171441 0)
(-0.0811164 -0.123183 0)
(-0.04984 -0.0786648 0)
(-0.0268023 -0.0409024 0)
(-0.0115099 -0.0125668 0)
(-0.0030038 0.00399008 0)
(5.73269e-05 0.00661404 0)
(-0.00103754 0.0333372 0)
(-0.0114782 0.0866141 0)
(-0.0289214 0.128347 0)
(-0.0513527 0.161337 0)
(-0.0769984 0.188404 0)
(-0.104996 0.211771 0)
(-0.134867 0.232843 0)
(-0.166301 0.252254 0)
(-0.199049 0.270038 0)
(-0.232851 0.285851 0)
(-0.267406 0.299158 0)
(-0.302374 0.30937 0)
(-0.337384 0.31594 0)
(-0.372048 0.318406 0)
(-0.405974 0.31642 0)
(-0.438781 0.309756 0)
(-0.470112 0.298311 0)
(-0.499647 0.282107 0)
(-0.527117 0.261273 0)
(-0.552312 0.236042 0)
(-0.575089 0.206729 0)
(-0.595369 0.173711 0)
(-0.613128 0.137408 0)
(-0.628381 0.0982587 0)
(-0.641159 0.0567084 0)
(-0.651482 0.0131992 0)
(-0.659339 -0.031826 0)
(-0.664657 -0.0779126 0)
(-0.667259 -0.124576 0)
(-0.666848 -0.171252 0)
(-0.662995 -0.217257 0)
(-0.65513 -0.261737 0)
(-0.642561 -0.303624 0)
(-0.624523 -0.341606 0)
(-0.600254 -0.374125 0)
(-0.569119 -0.399442 0)
(-0.530761 -0.41575 0)
(-0.485269 -0.421377 0)
(-0.433329 -0.41504 0)
(-0.376311 -0.396138 0)
(-0.316259 -0.365007 0)
(-0.255741 -0.323071 0)
(-0.197572 -0.272834 0)
(-0.14445 -0.21768 0)
(-0.0985883 -0.161519 0)
(-0.0614424 -0.108376 0)
(-0.0335795 -0.0620351 0)
(-0.0147299 -0.0258296 0)
(-0.00400328 -0.00262459 0)
(2.67854e-05 0.00503939 0)
(-0.00106186 0.0393445 0)
(-0.0118076 0.101173 0)
(-0.0297706 0.148766 0)
(-0.052847 0.185756 0)
(-0.0791768 0.215637 0)
(-0.107839 0.24111 0)
(-0.138306 0.263864 0)
(-0.170234 0.28466 0)
(-0.203344 0.303561 0)
(-0.237353 0.320202 0)
(-0.271946 0.334008 0)
(-0.306769 0.344359 0)
(-0.34144 0.350684 0)
(-0.375563 0.352512 0)
(-0.408742 0.349501 0)
(-0.440597 0.341444 0)
(-0.470783 0.328277 0)
(-0.499004 0.310068 0)
(-0.52503 0.287013 0)
(-0.548709 0.259415 0)
(-0.569968 0.22766 0)
(-0.58881 0.192193 0)
(-0.605302 0.153483 0)
(-0.619557 0.112 0)
(-0.631702 0.0681935 0)
(-0.641856 0.0224816 0)
(-0.650101 -0.0247488 0)
(-0.656455 -0.0731261 0)
(-0.660828 -0.122283 0)
(-0.66299 -0.171797 0)
(-0.662552 -0.221143 0)
(-0.658947 -0.26963 0)
(-0.651421 -0.316325 0)
(-0.639062 -0.359999 0)
(-0.620855 -0.399081 0)
(-0.595798 -0.431671 0)
(-0.563061 -0.455631 0)
(-0.522194 -0.468763 0)
(-0.473348 -0.4691 0)
(-0.417461 -0.455275 0)
(-0.356344 -0.4269 0)
(-0.292619 -0.384876 0)
(-0.22946 -0.331523 0)
(-0.170187 -0.270456 0)
(-0.117775 -0.2062 0)
(-0.0744205 -0.143661 0)
(-0.0412793 -0.0875814 0)
(-0.0184433 -0.0421675 0)
(-0.0051809 -0.0109726 0)
(-1.66844e-05 0.00295127 0)
(-0.00105499 0.0454568 0)
(-0.0118708 0.11601 0)
(-0.030016 0.16959 0)
(-0.0533494 0.210644 0)
(-0.0799582 0.243342 0)
(-0.108869 0.270871 0)
(-0.139505 0.295213 0)
(-0.171482 0.317268 0)
(-0.204491 0.337134 0)
(-0.238227 0.354429 0)
(-0.272356 0.368547 0)
(-0.306513 0.378836 0)
(-0.340303 0.384706 0)
(-0.373325 0.38568 0)
(-0.40518 0.381427 0)
(-0.435496 0.371772 0)
(-0.463946 0.356696 0)
(-0.490269 0.336335 0)
(-0.514285 0.310964 0)
(-0.535902 0.280969 0)
(-0.555123 0.246824 0)
(-0.572032 0.209044 0)
(-0.586784 0.168157 0)
(-0.599575 0.124664 0)
(-0.610624 0.0790216 0)
(-0.620132 0.0316213 0)
(-0.628269 -0.0172059 0)
(-0.635142 -0.0671743 0)
(-0.640757 -0.118037 0)
(-0.644972 -0.169526 0)
(-0.647485 -0.221302 0)
(-0.64779 -0.272876 0)
(-0.645153 -0.323524 0)
(-0.638609 -0.372196 0)
(-0.626984 -0.417424 0)
(-0.608983 -0.457283 0)
(-0.583337 -0.489413 0)
(-0.549024 -0.51116 0)
(-0.505547 -0.519855 0)
(-0.453214 -0.513234 0)
(-0.393364 -0.489946 0)
(-0.32842 -0.450048 0)
(-0.261729 -0.395346 0)
(-0.197146 -0.329424 0)
(-0.138454 -0.257317 0)
(-0.0887427 -0.184867 0)
(-0.0499478 -0.117974 0)
(-0.0227025 -0.0619657 0)
(-0.00656549 -0.0213139 0)
(-7.70962e-05 0.000254233 0)
(-0.0010158 0.0515294 0)
(-0.011656 0.130824 0)
(-0.0296304 0.190442 0)
(-0.0528177 0.235596 0)
(-0.0792884 0.271103 0)
(-0.108023 0.300627 0)
(-0.138395 0.326452 0)
(-0.169976 0.349622 0)
(-0.202426 0.370283 0)
(-0.235417 0.388042 0)
(-0.268597 0.402267 0)
(-0.301589 0.412279 0)
(-0.333993 0.417469 0)
(-0.365403 0.417364 0)
(-0.395426 0.41165 0)
(-0.423707 0.400193 0)
(-0.449947 0.383037 0)
(-0.473929 0.360399 0)
(-0.495527 0.332644 0)
(-0.514718 0.300258 0)
(-0.531576 0.263803 0)
(-0.54626 0.223872 0)
(-0.558995 0.181049 0)
(-0.57005 0.135867 0)
(-0.579708 0.088787 0)
(-0.588238 0.0401767 0)
(-0.595874 -0.00968581 0)
(-0.602802 -0.0605955 0)
(-0.609115 -0.112418 0)
(-0.614769 -0.165035 0)
(-0.619572 -0.218295 0)
(-0.623132 -0.271935 0)
(-0.62481 -0.325486 0)
(-0.623688 -0.378157 0)
(-0.618555 -0.428704 0)
(-0.607948 -0.475329 0)
(-0.590253 -0.515617 0)
(-0.563923 -0.5466 0)
(-0.527767 -0.564977 0)
(-0.481328 -0.567545 0)
(-0.425227 -0.551799 0)
(-0.361403 -0.516626 0)
(-0.293096 -0.462908 0)
(-0.224516 -0.393823 0)
(-0.160205 -0.314664 0)
(-0.104248 -0.232179 0)
(-0.0595605 -0.153582 0)
(-0.0275286 -0.0856052 0)
(-0.00817572 -0.0339261 0)
(-0.000157748 -0.00316003 0)
(-0.00094485 0.0574143 0)
(-0.0111623 0.145303 0)
(-0.0286088 0.210938 0)
(-0.0512428 0.260199 0)
(-0.0771563 0.298495 0)
(-0.105293 0.32995 0)
(-0.134974 0.357143 0)
(-0.165728 0.381276 0)
(-0.197178 0.402551 0)
(-0.228975 0.420575 0)
(-0.260755 0.434694 0)
(-0.292131 0.444207 0)
(-0.322702 0.448496 0)
(-0.352067 0.447092 0)
(-0.37985 0.439715 0)
(-0.40572 0.426282 0)
(-0.429421 0.406914 0)
(-0.450783 0.381918 0)
(-0.469744 0.351764 0)
(-0.486344 0.317038 0)
(-0.500721 0.278392 0)
(-0.513097 0.236497 0)
(-0.523751 0.191985 0)
(-0.532997 0.14542 0)
(-0.541162 0.0972613 0)
(-0.548554 0.0478555 0)
(-0.555445 -0.00256593 0)
(-0.562078 -0.0538695 0)
(-0.568615 -0.106014 0)
(-0.575102 -0.159012 0)
(-0.581464 -0.212883 0)
(-0.587447 -0.267585 0)
(-0.592567 -0.322919 0)
(-0.596044 -0.378405 0)
(-0.596754 -0.433126 0)
(-0.593209 -0.485558 0)
(-0.583611 -0.533426 0)
(-0.566001 -0.573656 0)
(-0.538552 -0.602487 0)
(-0.499973 -0.615842 0)
(-0.449991 -0.60997 0)
(-0.389766 -0.582305 0)
(-0.3221 -0.532371 0)
(-0.251266 -0.462445 0)
(-0.182414 -0.377683 0)
(-0.120644 -0.28555 0)
(-0.0700168 -0.19466 0)
(-0.0329072 -0.11343 0)
(-0.0100193 -0.0490872 0)
(-0.000261542 -0.00740709 0)
(-0.000844344 0.0629661 0)
(-0.0104002 0.15914 0)
(-0.0269685 0.230694 0)
(-0.0486484 0.284043 0)
(-0.0735938 0.325103 0)
(-0.100722 0.358419 0)
(-0.129304 0.386864 0)
(-0.158819 0.411804 0)
(-0.188861 0.433508 0)
(-0.219057 0.451596 0)
(-0.249034 0.4654 0)
(-0.278404 0.474203 0)
(-0.306774 0.477385 0)
(-0.333758 0.474495 0)
(-0.359006 0.465292 0)
(-0.382227 0.44976 0)
(-0.40321 0.428104 0)
(-0.421844 0.400734 0)
(-0.438125 0.368226 0)
(-0.452154 0.331265 0)
(-0.464123 0.290593 0)
(-0.474296 0.246944 0)
(-0.482986 0.200996 0)
(-0.490533 0.153329 0)
(-0.497276 0.104401 0)
(-0.503536 0.0545357 0)
(-0.509599 0.00392675 0)
(-0.515736 -0.0473526 0)
(-0.52215 -0.0993305 0)
(-0.528959 -0.152122 0)
(-0.536192 -0.205884 0)
(-0.543741 -0.260764 0)
(-0.551301 -0.316821 0)
(-0.558292 -0.373902 0)
(-0.56378 -0.431474 0)
(-0.566403 -0.488413 0)
(-0.564351 -0.542776 0)
(-0.555443 -0.591627 0)
(-0.53735 -0.631001 0)
(-0.507997 -0.656139 0)
(-0.46612 -0.662083 0)
(-0.411865 -0.644638 0)
(-0.347247 -0.601563 0)
(-0.276236 -0.533674 0)
(-0.204317 -0.445431 0)
(-0.137515 -0.344652 0)
(-0.0811405 -0.2413 0)
(-0.0387884 -0.145716 0)
(-0.012093 -0.0670585 0)
(-0.000391024 -0.0126042 0)
(-0.000718022 0.0680484 0)
(-0.00939082 0.172039 0)
(-0.0247485 0.249339 0)
(-0.0450904 0.306729 0)
(-0.0686743 0.350524 0)
(-0.0944045 0.385636 0)
(-0.121503 0.41522 0)
(-0.149405 0.440813 0)
(-0.177668 0.462767 0)
(-0.205904 0.480726 0)
(-0.233737 0.49402 0)
(-0.260785 0.501927 0)
(-0.286672 0.503832 0)
(-0.31104 0.499313 0)
(-0.333578 0.488178 0)
(-0.354039 0.470488 0)
(-0.372268 0.446541 0)
(-0.388212 0.416853 0)
(-0.401923 0.382102 0)
(-0.41355 0.34307 0)
(-0.423326 0.300575 0)
(-0.431542 0.255406 0)
(-0.438523 0.208272 0)
(-0.444608 0.159759 0)
(-0.450131 0.110319 0)
(-0.4554 0.060252 0)
(-0.460691 0.00971941 0)
(-0.466272 -0.0412495 0)
(-0.472366 -0.0927317 0)
(-0.479136 -0.14491 0)
(-0.486691 -0.198038 0)
(-0.495049 -0.252409 0)
(-0.504081 -0.308297 0)
(-0.513436 -0.365851 0)
(-0.522433 -0.424936 0)
(-0.529955 -0.484905 0)
(-0.534353 -0.544306 0)
(-0.533432 -0.600587 0)
(-0.524572 -0.649884 0)
(-0.505066 -0.687059 0)
(-0.472685 -0.706139 0)
(-0.426418 -0.701276 0)
(-0.367183 -0.668156 0)
(-0.298247 -0.605569 0)
(-0.225057 -0.516598 0)
(-0.154346 -0.40885 0)
(-0.0926874 -0.293394 0)
(-0.0450878 -0.182639 0)
(-0.0143823 -0.0880669 0)
(-0.000548148 -0.0188651 0)
(-0.000570898 0.0725392 0)
(-0.00816509 0.183727 0)
(-0.0220077 0.266524 0)
(-0.0406542 0.327881 0)
(-0.0625089 0.374377 0)
(-0.0864794 0.411228 0)
(-0.111746 0.441847 0)
(-0.137696 0.46795 0)
(-0.16386 0.489989 0)
(-0.189834 0.507645 0)
(-0.215246 0.52026 0)
(-0.239732 0.52712 0)
(-0.262942 0.527626 0)
(-0.284558 0.521393 0)
(-0.304313 0.508289 0)
(-0.322017 0.488457 0)
(-0.33757 0.462292 0)
(-0.350973 0.430413 0)
(-0.362329 0.393595 0)
(-0.371823 0.352706 0)
(-0.379713 0.308626 0)
(-0.386297 0.262185 0)
(-0.391896 0.214108 0)
(-0.396831 0.164981 0)
(-0.401409 0.115238 0)
(-0.405909 0.0651569 0)
(-0.410579 0.0148713 0)
(-0.415663 -0.0356182 0)
(-0.421382 -0.0864192 0)
(-0.427916 -0.13775 0)
(-0.435423 -0.189921 0)
(-0.444017 -0.24332 0)
(-0.45372 -0.298374 0)
(-0.464396 -0.355483 0)
(-0.475642 -0.414877 0)
(-0.486654 -0.476404 0)
(-0.49608 -0.539202 0)
(-0.50191 -0.601309 0)
(-0.501479 -0.659278 0)
(-0.491678 -0.707965 0)
(-0.469465 -0.740719 0)
(-0.432652 -0.750199 0)
(-0.380846 -0.729872 0)
(-0.316226 -0.676008 0)
(-0.243763 -0.58957 0)
(-0.170566 -0.477201 0)
(-0.104358 -0.350606 0)
(-0.0516898 -0.224246 0)
(-0.0168616 -0.112289 0)
(-0.00073408 -0.0262947 0)
(-0.000408933 0.0763362 0)
(-0.00676203 0.193966 0)
(-0.0188225 0.281933 0)
(-0.0354517 0.347152 0)
(-0.0552423 0.396314 0)
(-0.0771257 0.434856 0)
(-0.100248 0.466421 0)
(-0.123956 0.492911 0)
(-0.14775 0.514888 0)
(-0.171219 0.532094 0)
(-0.194001 0.543899 0)
(-0.215756 0.549606 0)
(-0.236173 0.548645 0)
(-0.254982 0.540677 0)
(-0.271969 0.525638 0)
(-0.287 0.503754 0)
(-0.300032 0.475516 0)
(-0.311115 0.441638 0)
(-0.320389 0.402984 0)
(-0.328066 0.360491 0)
(-0.334409 0.315088 0)
(-0.339711 0.267629 0)
(-0.344272 0.218844 0)
(-0.348382 0.169308 0)
(-0.35231 0.119431 0)
(-0.356295 0.0694688 0)
(-0.360544 0.0195306 0)
(-0.365266 -0.0304013 0)
(-0.37066 -0.0804479 0)
(-0.376905 -0.130839 0)
(-0.384177 -0.181905 0)
(-0.39265 -0.234076 0)
(-0.402457 -0.287875 0)
(-0.413641 -0.343877 0)
(-0.426055 -0.402614 0)
(-0.439226 -0.464387 0)
(-0.452177 -0.528954 0)
(-0.46324 -0.595077 0)
(-0.469937 -0.66 0)
(-0.46904 -0.718968 0)
(-0.456934 -0.7651 0)
(-0.430376 -0.789901 0)
(-0.387576 -0.784684 0)
(-0.329314 -0.742855 0)
(-0.259633 -0.662529 0)
(-0.18559 -0.548493 0)
(-0.115821 -0.41237 0)
(-0.0584541 -0.270442 0)
(-0.0194953 -0.139835 0)
(-0.000949007 -0.034984 0)
(-0.000238647 0.0793601 0)
(-0.00522687 0.202555 0)
(-0.0152835 0.295291 0)
(-0.0296164 0.364233 0)
(-0.0470476 0.416023 0)
(-0.0665552 0.45622 0)
(-0.0872639 0.488664 0)
(-0.108484 0.515438 0)
(-0.129689 0.537235 0)
(-0.150467 0.553878 0)
(-0.170468 0.564779 0)
(-0.189389 0.569277 0)
(-0.206963 0.566841 0)
(-0.222973 0.557183 0)
(-0.237265 0.54031 0)
(-0.24976 0.516531 0)
(-0.260468 0.486427 0)
(-0.269479 0.450796 0)
(-0.276959 0.410577 0)
(-0.283132 0.366759 0)
(-0.288255 0.320306 0)
(-0.292602 0.272082 0)
(-0.29644 0.22281 0)
(-0.300021 0.173045 0)
(-0.303569 0.123173 0)
(-0.307278 0.0734227 0)
(-0.311313 0.0238849 0)
(-0.315839 -0.0254695 0)
(-0.321026 -0.0747634 0)
(-0.327035 -0.124221 0)
(-0.334038 -0.174162 0)
(-0.342234 -0.225023 0)
(-0.351824 -0.277361 0)
(-0.362979 -0.331854 0)
(-0.375761 -0.389249 0)
(-0.39 -0.450221 0)
(-0.405106 -0.515105 0)
(-0.419847 -0.583441 0)
(-0.432119 -0.65335 0)
(-0.438844 -0.720832 0)
(-0.436145 -0.779268 0)
(-0.419964 -0.819502 0)
(-0.387169 -0.830983 0)
(-0.336949 -0.804127 0)
(-0.272011 -0.733583 0)
(-0.198873 -0.621307 0)
(-0.126735 -0.477905 0)
(-0.0652253 -0.32098 0)
(-0.0222398 -0.170743 0)
(-0.00119199 -0.0450062 0)