/*--------------------------------*- C++ -*----------------------------------*\
  =========                 |
  \\      /  F ield         | OpenFOAM: The Open Source CFD Toolbox
   \\    /   O peration     | Website:  https://openfoam.org
    \\  /    A nd           | Version:  7
     \\/     M anipulation  |
\*---------------------------------------------------------------------------*/
FoamFile
{
    version     2.0;
    format      ascii;
    class       volScalarField;
    location    "50";
    object      p;
}
// * * * * * * * * * * * * * * * * * * * * * * * * * * * * * * * * * * * * * //

dimensions      [0 2 -2 0 0 0 0];

internalField   nonuniform List<scalar> 
2500
(
0.000926413
0.00192917
0.00194986
0.00170784
0.00140472
0.0010691
0.000721857
0.000378402
4.6798e-05
-0.000268149
-0.000562318
-0.000830634
-0.0010666
-0.00126196
-0.00140713
-0.00149157
-0.00150467
-0.00143647
-0.00127877
-0.00102597
-0.000676331
-0.000232769
0.000296127
0.000895615
0.00154429
0.00221426
0.0028716
0.00347787
0.00399202
0.00437318
0.00458352
0.00459148
0.00437458
0.00392186
0.00323538
0.00233075
0.00123652
-7.6401e-06
-0.00135392
-0.00274931
-0.00413883
-0.00546873
-0.0066892
-0.00775616
-0.00863241
-0.00928888
-0.00970666
-0.00988096
-0.00983634
-0.00968641
0.00211026
0.00220897
0.0020816
0.00185413
0.00158621
0.00129184
0.000985752
0.000679571
0.000380459
9.31738e-05
-0.000177769
-0.000427316
-0.00064914
-0.000835731
-0.000978361
-0.00106772
-0.00109432
-0.00104939
-0.000925564
-0.000717927
-0.000424794
-4.88077e-05
0.000402448
0.000915645
0.00147157
0.00204493
0.002605
0.00311668
0.00354261
0.00384541
0.00399066
0.00394969
0.00370241
0.00323945
0.00256369
0.00169055
0.000647508
-0.00052786
-0.00179076
-0.00309215
-0.0043816
-0.00561051
-0.00673465
-0.00771597
-0.00852343
-0.00913382
-0.00953239
-0.00971365
-0.00969088
-0.0095375
0.00255851
0.00246475
0.00228068
0.0020634
0.00181936
0.00155588
0.0012831
0.0010085
0.000736922
0.000472264
0.000218549
-1.94014e-05
-0.000235695
-0.000423257
-0.000574043
-0.000679347
-0.000730346
-0.000718679
-0.000637214
-0.000480834
-0.000247359
6.15831e-05
0.000439698
0.000875442
0.00135167
0.00184551
0.0023285
0.0027678
0.00312806
0.00337375
0.00347197
0.00339533
0.00312466
0.0026513
0.0019785
0.00112182
0.000108392
-0.00102486
-0.00223415
-0.00347239
-0.00469214
-0.00584831
-0.00690093
-0.00781693
-0.00857062
-0.00914348
-0.00952335
-0.00970154
-0.0096732
-0.00949072
0.00293908
0.00276053
0.00253465
0.00230283
0.00206136
0.00181215
0.00155946
0.00130593
0.00105324
0.000803293
0.000558859
0.000323905
0.000103738
-9.50449e-05
-0.000264729
-0.000396822
-0.000482479
-0.000513071
-0.000480838
-0.000379704
-0.000206158
3.9746e-05
0.000353485
0.000725367
0.00114038
0.00157768
0.00201028
0.00240619
0.00273041
0.00294735
0.00302367
0.00293129
0.00265036
0.00217164
0.00149808
0.000645245
-0.000359406
-0.00147855
-0.0026679
-0.00387999
-0.00506804
-0.00618874
-0.0072044
-0.00808509
-0.00880878
-0.00936033
-0.00972875
-0.00990134
-0.00986572
-0.00966327
0.00335497
0.00309105
0.0028082
0.00254705
0.00229592
0.00204978
0.00180667
0.00156434
0.00132092
0.00107585
0.0008302
0.000586834
0.00035035
0.000126977
-7.56593e-05
-0.000248833
-0.000383134
-0.00046897
-0.000497235
-0.000460108
-0.000352039
-0.000170876
8.10097e-05
0.000396018
0.000761382
0.00115838
0.00156096
0.00193711
0.00225101
0.00246554
0.00254531
0.00245997
0.00218735
0.00171628
0.00104831
0.000198445
-0.000805645
-0.00192571
-0.00311616
-0.00432797
-0.00551298
-0.00662755
-0.00763493
-0.00850658
-0.00922266
-0.00977025
-0.0101397
-0.0103182
-0.0102854
-0.010085
0.00377013
0.003414
0.00306528
0.00276788
0.00250017
0.00224917
0.00200682
0.0017661
0.0015215
0.0012698
0.00101024
0.000744419
0.000476225
0.00021159
-4.17181e-05
-0.000274394
-0.000475965
-0.000635289
-0.000741215
-0.000783442
-0.000753617
-0.000646683
-0.000462276
-0.000205537
0.00011337
0.000478509
0.000864922
0.00124019
0.00156697
0.00180559
0.00191732
0.00186793
0.00163126
0.00119241
0.000549995
-0.000282922
-0.00127934
-0.00240043
-0.00359899
-0.00482382
-0.00602429
-0.00715467
-0.00817706
-0.00906304
-0.00979355
-0.0103571
-0.010745
-0.0109437
-0.010936
-0.0107594
0.00413947
0.00369053
0.00327212
0.00293411
0.00264458
0.00238189
0.00213181
0.00188253
0.00162492
0.00135303
0.00106417
0.000758641
0.000439579
0.000112685
-0.000213981
-0.000530248
-0.000824169
-0.0010825
-0.00129137
-0.00143722
-0.00150799
-0.00149478
-0.00139362
-0.0012065
-0.000940266
-0.000606784
-0.000228908
0.000160762
0.000523144
0.00081538
0.000994197
0.00101983
0.000860038
0.00049389
-8.54215e-05
-0.000868999
-0.00183239
-0.00293748
-0.00413602
-0.00537435
-0.00659859
-0.0077595
-0.0088162
-0.00973824
-0.0105058
-0.0111069
-0.011534
-0.0117755
-0.0118095
-0.0116795
0.0044281
0.00388216
0.00339139
0.00300986
0.00269423
0.00241356
0.00214707
0.00187813
0.00159392
0.00128575
0.000948935
0.00058241
0.00018848
-0.000227409
-0.000656839
-0.00108859
-0.00150891
-0.00190193
-0.0022504
-0.00253657
-0.00274361
-0.00285746
-0.00286912
-0.00277612
-0.00258114
-0.00229009
-0.0019212
-0.00150638
-0.00108603
-0.000706486
-0.000416566
-0.00026342
-0.000287918
-0.000520215
-0.000975994
-0.00165406
-0.00253566
-0.00358588
-0.00475702
-0.00599346
-0.00723751
-0.00843506
-0.00954019
-0.0105179
-0.0113451
-0.0120081
-0.012498
-0.0128016
-0.0129029
-0.0128366
0.00458798
0.00394635
0.00338227
0.00295531
0.0026099
0.00230487
0.00201256
0.00171135
0.00138466
0.00102101
0.000613582
0.000159762
-0.000339153
-0.000878135
-0.00144849
-0.0020379
-0.00263057
-0.00320759
-0.00374755
-0.00422754
-0.00462453
-0.00491749
-0.00509026
-0.00513392
-0.00504521
-0.00482238
-0.00447466
-0.00403126
-0.00353266
-0.00302835
-0.0025735
-0.00222453
-0.00203405
-0.00204551
-0.00228828
-0.00277394
-0.00349434
-0.00442194
-0.00551254
-0.00671016
-0.00795333
-0.00918171
-0.0103419
-0.0113915
-0.0123004
-0.01305
-0.013628
-0.0140217
-0.0142065
-0.014223
0.00457627
0.00383746
0.00320049
0.00272711
0.00234824
0.00201183
0.00168294
0.00133479
0.000946904
0.000504789
-7.59859e-07
-0.000574238
-0.00121573
-0.00192101
-0.00268138
-0.00348357
-0.00430967
-0.00513731
-0.0059402
-0.00668902
-0.00735283
-0.0079013
-0.00830813
-0.00855461
-0.00862893
-0.00852025
-0.00822296
-0.00775943
-0.00716807
-0.00650037
-0.00581801
-0.00518849
-0.00467957
-0.00435294
-0.00425789
-0.00442578
-0.00486612
-0.00556517
-0.00648734
-0.00757948
-0.00877737
-0.0100134
-0.011224
-0.0123551
-0.0133657
-0.0142277
-0.0149217
-0.0154275
-0.0157239
-0.0158381
0.00433957
0.00350847
0.0028001
0.00227932
0.00186273
0.00148667
0.00110857
0.000696181
0.000224897
-0.000323144
-0.00096001
-0.00169265
-0.00252318
-0.00344877
-0.00446132
-0.00554697
-0.0066858
-0.0078517
-0.00901266
-0.0101316
-0.0111675
-0.0120779
-0.0128224
-0.0133679
-0.0136901
-0.0137668
-0.013573
-0.0131161
-0.0124292
-0.0115634
-0.0105862
-0.00957733
-0.00862291
-0.00780841
-0.00721052
-0.00688935
-0.0068818
-0.00719731
-0.00781695
-0.00869614
-0.00977077
-0.0109658
-0.0122043
-0.0134163
-0.0145435
-0.0155418
-0.0163797
-0.0170301
-0.0174559
-0.0176877
0.0038325
0.00291059
0.00213331
0.00156431
0.00110484
0.000679198
0.000236862
-0.000260161
-0.000841038
-0.00152756
-0.00233537
-0.00327475
-0.00435076
-0.00556299
-0.00690474
-0.00836227
-0.00991392
-0.0115297
-0.013171
-0.0147913
-0.0163373
-0.0177507
-0.0189724
-0.0199489
-0.0206373
-0.0210004
-0.0209937
-0.0205957
-0.01983
-0.0187435
-0.0174071
-0.0159126
-0.0143669
-0.0128844
-0.0115774
-0.0105454
-0.00986508
-0.009582
-0.00970591
-0.0102103
-0.0110372
-0.0121056
-0.0133233
-0.0145981
-0.0158471
-0.017003
-0.0180133
-0.0188335
-0.019422
-0.0197885
0.00300029
0.00199648
0.00115335
0.000534597
2.5692e-05
-0.000461504
-0.000985792
-0.00159129
-0.00231233
-0.00317537
-0.00420067
-0.00540297
-0.00679164
-0.0083699
-0.0101337
-0.0120704
-0.014157
-0.0163596
-0.0186321
-0.0209168
-0.023145
-0.0252389
-0.0271157
-0.0286945
-0.0299054
-0.0306898
-0.0309859
-0.0307318
-0.0299321
-0.0286244
-0.0268788
-0.024797
-0.0225069
-0.0201557
-0.0178984
-0.0158851
-0.0142468
-0.013082
-0.0124457
-0.0123445
-0.0127372
-0.0135422
-0.0146513
-0.0159444
-0.0173051
-0.018631
-0.0198396
-0.0208654
-0.0216387
-0.0221656
0.00180064
0.000719546
-0.000185521
-0.000855755
-0.00142203
-0.00198494
-0.00261172
-0.00335312
-0.00424928
-0.00533243
-0.00662863
-0.00815865
-0.0099377
-0.0119743
-0.0142686
-0.01681
-0.0195751
-0.0225256
-0.0256072
-0.0287488
-0.0318631
-0.0348487
-0.0375935
-0.0399824
-0.0419092
-0.0432849
-0.0440288
-0.0440394
-0.0432853
-0.0417885
-0.0396126
-0.0368637
-0.0336882
-0.0302659
-0.0267992
-0.0234985
-0.020564
-0.0181661
-0.0164272
-0.0154082
-0.0151023
-0.0154392
-0.0162977
-0.0175259
-0.0189631
-0.0204597
-0.0218883
-0.023145
-0.0241433
-0.0248549
0.000183973
-0.000961257
-0.00192399
-0.0026485
-0.00328172
-0.00393665
-0.00468922
-0.00559725
-0.00670763
-0.00805947
-0.00968625
-0.0116164
-0.013873
-0.0164715
-0.0194179
-0.0227051
-0.0263097
-0.030189
-0.0342788
-0.0384923
-0.04272
-0.0468323
-0.0506827
-0.0541157
-0.0569801
-0.0591456
-0.0605034
-0.0609312
-0.0603387
-0.0587257
-0.056141
-0.0526881
-0.0485241
-0.0438568
-0.0389347
-0.0340334
-0.0294339
-0.025398
-0.0221406
-0.0198053
-0.0184467
-0.0180261
-0.0184207
-0.0194465
-0.0208891
-0.0225347
-0.024195
-0.0257177
-0.0269679
-0.0278989
-0.00188093
-0.00308247
-0.00409773
-0.00487943
-0.0055904
-0.00635552
-0.00725941
-0.00836756
-0.00973447
-0.0114076
-0.0134293
-0.0158378
-0.0186656
-0.0219376
-0.0256669
-0.0298509
-0.0344667
-0.0394664
-0.0447743
-0.0502846
-0.0558615
-0.0613425
-0.0665419
-0.071259
-0.0752917
-0.0784576
-0.0806094
-0.0816187
-0.0813328
-0.0797161
-0.0767964
-0.072664
-0.0674757
-0.0614552
-0.0548885
-0.0481115
-0.0414906
-0.0353933
-0.0301521
-0.0260264
-0.0231691
-0.0216058
-0.0212352
-0.0218498
-0.0231757
-0.0249193
-0.0268084
-0.0286161
-0.0301637
-0.0313481
-0.00442968
-0.00567037
-0.00673268
-0.00757535
-0.00837598
-0.00927076
-0.0103531
-0.0116964
-0.0133641
-0.015413
-0.0178965
-0.020864
-0.0243598
-0.0284194
-0.0330648
-0.0382984
-0.0440974
-0.0504076
-0.0571388
-0.0641626
-0.0713124
-0.0783873
-0.0851584
-0.091377
-0.0967877
-0.101151
-0.104274
-0.106014
-0.10619
-0.104712
-0.101582
-0.0968671
-0.0907093
-0.0833309
-0.0750359
-0.0662051
-0.0572808
-0.0487391
-0.0410482
-0.0346167
-0.0297392
-0.026553
-0.0250173
-0.0249249
-0.0259459
-0.0276915
-0.0297825
-0.0318979
-0.0337724
-0.0352543
-0.00747357
-0.0087426
-0.00984542
-0.0107524
-0.0116548
-0.0126992
-0.0139873
-0.0156012
-0.0176136
-0.0200926
-0.0231035
-0.0267092
-0.030967
-0.0359246
-0.0416131
-0.0480404
-0.0551823
-0.0629758
-0.0713128
-0.0800376
-0.0889474
-0.0977982
-0.106314
-0.114196
-0.12114
-0.126851
-0.131085
-0.133668
-0.134442
-0.133255
-0.130076
-0.124943
-0.11797
-0.109357
-0.0993982
-0.0884906
-0.0771267
-0.0658756
-0.0553432
-0.0461107
-0.0386596
-0.0332966
-0.0301001
-0.0289078
-0.0293542
-0.0309506
-0.0331846
-0.0356035
-0.0378506
-0.0396715
-0.0110253
-0.0123023
-0.0134386
-0.0144133
-0.0154295
-0.0166426
-0.0181627
-0.0200807
-0.0224795
-0.0254391
-0.0290385
-0.0333548
-0.0384598
-0.0444137
-0.0512571
-0.0590015
-0.0676196
-0.0770359
-0.0871196
-0.0976822
-0.108479
-0.119219
-0.129574
-0.139199
-0.147744
-0.154871
-0.160286
-0.16378
-0.165234
-0.164467
-0.161409
-0.156068
-0.148519
-0.13892
-0.127528
-0.114716
-0.100985
-0.0869577
-0.0733558
-0.0609353
-0.0503975
-0.0422794
-0.0368545
-0.0340754
-0.033587
-0.0348114
-0.037085
-0.0397951
-0.0424379
-0.0446472
-0.015069
-0.0163408
-0.0175022
-0.0185466
-0.0196868
-0.0210859
-0.0228615
-0.0251132
-0.0279346
-0.0314184
-0.0356579
-0.0407453
-0.046767
-0.0537957
-0.0618801
-0.0710336
-0.0812217
-0.0923519
-0.104265
-0.116735
-0.129469
-0.142124
-0.15432
-0.165667
-0.175776
-0.184282
-0.19086
-0.195272
-0.197414
-0.197145
-0.19435
-0.189016
-0.181177
-0.170936
-0.158487
-0.144138
-0.128347
-0.111734
-0.095082
-0.0792919
-0.0652906
-0.0538937
-0.045652
-0.0407282
-0.0388557
-0.0394078
-0.0415641
-0.0445117
-0.0475807
-0.0502216
-0.0195883
-0.0208325
-0.0220098
-0.0231247
-0.0243971
-0.025996
-0.0280457
-0.0306544
-0.0339265
-0.0379675
-0.042885
-0.0487866
-0.0557727
-0.0639272
-0.073305
-0.0839179
-0.0957202
-0.108597
-0.122355
-0.136723
-0.151358
-0.165862
-0.179805
-0.192751
-0.204288
-0.214036
-0.221662
-0.226918
-0.229691
-0.229925
-0.227484
-0.222336
-0.214485
-0.203979
-0.190933
-0.175565
-0.158234
-0.13949
-0.120101
-0.101046
-0.0834409
-0.068395
-0.0568065
-0.0491573
-0.0453816
-0.0448801
-0.0466988
-0.0498057
-0.0533014
-0.0564186
-0.024537
-0.0257392
-0.0269217
-0.028105
-0.029514
-0.0313215
-0.0336573
-0.0366379
-0.0403777
-0.0449948
-0.0506108
-0.0573476
-0.0653184
-0.0746165
-0.0852999
-0.0973748
-0.11078
-0.125371
-0.140918
-0.157099
-0.173518
-0.189721
-0.205231
-0.219576
-0.232325
-0.243098
-0.251581
-0.257531
-0.260836
-0.261506
-0.259439
-0.254589
-0.246946
-0.236515
-0.223336
-0.20752
-0.1893
-0.16909
-0.147559
-0.125663
-0.104625
-0.085812
-0.0705021
-0.0595971
-0.0533694
-0.0513679
-0.0525641
-0.0556974
-0.0596153
-0.063242
-0.0298685
-0.0310065
-0.0321824
-0.0334297
-0.0349753
-0.0369938
-0.0396197
-0.0429761
-0.0471873
-0.0523826
-0.0586967
-0.0662641
-0.0752092
-0.0856316
-0.0975891
-0.111079
-0.126018
-0.142232
-0.159445
-0.177286
-0.195303
-0.212992
-0.229833
-0.245325
-0.259028
-0.270573
-0.279677
-0.28613
-0.289833
-0.290826
-0.289087
-0.28457
-0.277264
-0.267152
-0.254222
-0.238487
-0.220043
-0.199134
-0.17625
-0.152221
-0.128254
-0.105876
-0.0867191
-0.072168
-0.0629717
-0.0589845
-0.0592135
-0.0622039
-0.0665031
-0.0706652
-0.0355099
-0.0365694
-0.0377253
-0.0390284
-0.0407049
-0.0429293
-0.0458391
-0.0495633
-0.0542341
-0.0599909
-0.0669797
-0.0753458
-0.0852218
-0.0967112
-0.109868
-0.124677
-0.141031
-0.158721
-0.177424
-0.19672
-0.216106
-0.23503
-0.252937
-0.26931
-0.283705
-0.295773
-0.305265
-0.312021
-0.315971
-0.317169
-0.315663
-0.311443
-0.304507
-0.294842
-0.282407
-0.267151
-0.249049
-0.228171
-0.20479
-0.179514
-0.153402
-0.127996
-0.10518
-0.0868184
-0.0742452
-0.0677967
-0.066673
-0.0692964
-0.0739186
-0.078626
-0.0413899
-0.042351
-0.0434728
-0.04482
-0.0466157
-0.0490324
-0.0522092
-0.0562793
-0.0613814
-0.0676632
-0.0752796
-0.0843844
-0.0951159
-0.107579
-0.12182
-0.13781
-0.155416
-0.174391
-0.194371
-0.214887
-0.235388
-0.255287
-0.274002
-0.291005
-0.305858
-0.318234
-0.32792
-0.334802
-0.338857
-0.34015
-0.338767
-0.334764
-0.328157
-0.318953
-0.307115
-0.292563
-0.275192
-0.254928
-0.231827
-0.206223
-0.178915
-0.151294
-0.125332
-0.103284
-0.0871102
-0.0777908
-0.0749153
-0.0769164
-0.0817681
-0.0870162
-0.0474185
-0.0482691
-0.0493415
-0.0507169
-0.0526134
-0.0551996
-0.0586147
-0.0629947
-0.0684827
-0.0752327
-0.0834064
-0.0931633
-0.104645
-0.117955
-0.133132
-0.15013
-0.16879
-0.188832
-0.209853
-0.231341
-0.252708
-0.273335
-0.292624
-0.310044
-0.325167
-0.33769
-0.34743
-0.354313
-0.358358
-0.359652
-0.3583
-0.354412
-0.348048
-0.33924
-0.327979
-0.314192
-0.297741
-0.278461
-0.256226
-0.231104
-0.203562
-0.1747
-0.146379
-0.121073
-0.101318
-0.088848
-0.0838487
-0.0849441
-0.0899086
-0.0956755
-0.0535113
-0.0542365
-0.0552439
-0.0566282
-0.0586003
-0.0613238
-0.0649367
-0.069576
-0.0753879
-0.0825302
-0.091169
-0.101467
-0.113568
-0.127571
-0.143508
-0.161315
-0.180811
-0.201688
-0.223508
-0.245725
-0.267722
-0.288859
-0.308527
-0.326198
-0.341458
-0.354022
-0.363733
-0.370544
-0.374506
-0.37573
-0.374342
-0.370475
-0.364251
-0.355732
-0.344951
-0.331866
-0.316353
-0.298206
-0.277189
-0.253143
-0.226205
-0.197088
-0.167359
-0.13949
-0.116442
-0.100721
-0.0932951
-0.0931995
-0.0981387
-0.104386
-0.0595754
-0.0601675
-0.0610944
-0.0624644
-0.0644804
-0.0672994
-0.0710576
-0.0758919
-0.0819495
-0.0893904
-0.0983828
-0.109091
-0.121659
-0.136182
-0.152683
-0.171085
-0.191189
-0.212663
-0.235044
-0.257762
-0.28018
-0.301643
-0.32154
-0.339346
-0.354657
-0.367206
-0.376851
-0.383564
-0.387411
-0.388526
-0.387053
-0.383141
-0.376958
-0.368614
-0.358179
-0.345663
-0.330984
-0.313947
-0.294267
-0.27164
-0.245917
-0.217409
-0.187255
-0.157694
-0.131887
-0.113028
-0.102981
-0.101431
-0.106189
-0.112865
-0.065528
-0.0659798
-0.0668114
-0.0681413
-0.070163
-0.0730268
-0.0768664
-0.0818179
-0.0880285
-0.0956586
-0.104877
-0.115849
-0.128716
-0.14357
-0.160429
-0.179206
-0.199687
-0.221527
-0.244245
-0.267257
-0.289914
-0.311557
-0.33157
-0.349434
-0.364754
-0.377268
-0.386847
-0.393467
-0.397202
-0.398196
-0.396611
-0.392613
-0.386393
-0.378117
-0.367894
-0.35579
-0.341779
-0.325713
-0.307315
-0.286212
-0.262057
-0.234799
-0.2051
-0.17478
-0.146933
-0.125256
-0.112533
-0.109306
-0.113729
-0.12077
-0.071289
-0.0715994
-0.0723225
-0.073584
-0.0755676
-0.0784167
-0.0822629
-0.0872415
-0.0934992
-0.101196
-0.1105
-0.121577
-0.134566
-0.149557
-0.166565
-0.185496
-0.206131
-0.228116
-0.250965
-0.274088
-0.296831
-0.318534
-0.338584
-0.356461
-0.371772
-0.384259
-0.393792
-0.400347
-0.403994
-0.404879
-0.403177
-0.399066
-0.392762
-0.384468
-0.374342
-0.362497
-0.34897
-0.333681
-0.316397
-0.296741
-0.274262
-0.248636
-0.220072
-0.189861
-0.160787
-0.136786
-0.121478
-0.116421
-0.12035
-0.127693
-0.0767916
-0.0769634
-0.0775668
-0.0787302
-0.0806266
-0.0833937
-0.0871617
-0.0920661
-0.0982535
-0.105884
-0.115125
-0.126141
-0.13907
-0.154004
-0.170954
-0.189828
-0.210406
-0.232333
-0.255126
-0.278197
-0.300897
-0.322566
-0.342593
-0.360458
-0.375762
-0.388243
-0.397763
-0.40429
-0.407885
-0.408689
-0.406882
-0.402652
-0.396238
-0.387865
-0.377744
-0.366027
-0.352814
-0.338092
-0.321699
-0.303299
-0.282412
-0.258549
-0.231547
-0.20215
-0.172645
-0.146926
-0.12926
-0.122284
-0.125588
-0.133166
-0.0819816
-0.0820225
-0.0824983
-0.0835328
-0.0852887
-0.0878987
-0.0914941
-0.0962128
-0.102203
-0.109626
-0.118649
-0.129436
-0.142128
-0.156814
-0.173511
-0.192129
-0.212455
-0.234143
-0.256716
-0.279596
-0.302142
-0.323701
-0.34366
-0.361496
-0.376802
-0.389303
-0.398846
-0.405386
-0.408971
-0.40973
-0.407842
-0.403502
-0.396965
-0.388483
-0.378296
-0.366605
-0.353558
-0.339209
-0.32347
-0.306072
-0.286563
-0.264383
-0.239112
-0.211003
-0.181752
-0.154948
-0.13525
-0.126353
-0.128902
-0.136661
-0.0868193
-0.0867439
-0.0870877
-0.0879625
-0.0895203
-0.0918913
-0.0952109
-0.0996233
-0.105282
-0.11235
-0.120999
-0.131393
-0.143674
-0.157937
-0.174201
-0.192386
-0.21229
-0.233577
-0.255787
-0.278355
-0.30065
-0.322027
-0.341875
-0.359666
-0.374982
-0.387526
-0.397128
-0.403724
-0.407342
-0.408098
-0.406169
-0.401743
-0.39509
-0.386484
-0.376187
-0.364443
-0.351441
-0.337292
-0.321979
-0.305307
-0.286884
-0.266153
-0.242551
-0.215947
-0.187441
-0.160129
-0.138777
-0.127997
-0.129696
-0.137588
-0.0912843
-0.091111
-0.091323
-0.0920078
-0.0933063
-0.0953495
-0.098282
-0.10226
-0.107446
-0.114013
-0.122134
-0.131978
-0.14369
-0.15737
-0.173043
-0.190638
-0.209964
-0.230703
-0.252413
-0.274546
-0.296489
-0.317609
-0.337299
-0.355026
-0.370354
-0.38297
-0.392674
-0.399378
-0.403089
-0.403901
-0.401979
-0.397512
-0.39077
-0.382047
-0.371622
-0.359765
-0.346707
-0.332606
-0.317505
-0.301281
-0.283614
-0.263994
-0.241808
-0.216673
-0.189163
-0.161776
-0.139123
-0.126547
-0.127294
-0.13529
-0.09537
-0.0951265
-0.0952109
-0.0956747
-0.0966486
-0.0982682
-0.100695
-0.104103
-0.108674
-0.114592
-0.122039
-0.131189
-0.142191
-0.155149
-0.170094
-0.186966
-0.205587
-0.225656
-0.246752
-0.268351
-0.28986
-0.31066
-0.33015
-0.347791
-0.363133
-0.375837
-0.385674
-0.392529
-0.396379
-0.397299
-0.395437
-0.390979
-0.384184
-0.375364
-0.364815
-0.352818
-0.33963
-0.325441
-0.310345
-0.294291
-0.27703
-0.258114
-0.236948
-0.213015
-0.186484
-0.159248
-0.13556
-0.121238
-0.120943
-0.129024
-0.0990944
-0.0988114
-0.0987762
-0.0989862
-0.0995634
-0.100655
-0.102448
-0.105147
-0.108957
-0.114083
-0.120719
-0.129047
-0.139219
-0.151342
-0.165455
-0.181505
-0.199327
-0.218641
-0.239046
-0.260043
-0.281062
-0.301498
-0.320758
-0.338296
-0.353648
-0.366449
-0.376442
-0.383477
-0.387508
-0.388581
-0.386826
-0.382424
-0.375617
-0.366718
-0.356041
-0.343876
-0.330493
-0.316105
-0.300829
-0.284661
-0.267431
-0.248763
-0.228108
-0.204909
-0.179072
-0.151951
-0.127318
-0.111255
-0.109778
-0.11793
-0.102488
-0.102209
-0.102065
-0.101982
-0.10208
-0.102527
-0.103548
-0.10539
-0.108295
-0.112492
-0.118193
-0.125589
-0.134835
-0.146043
-0.159253
-0.174419
-0.191391
-0.209902
-0.229576
-0.249936
-0.270433
-0.290479
-0.309488
-0.326911
-0.342268
-0.355171
-0.365334
-0.372578
-0.376826
-0.378095
-0.376495
-0.372198
-0.365422
-0.356472
-0.345665
-0.333299
-0.319643
-0.304929
-0.289287
-0.272734
-0.25514
-0.236205
-0.215459
-0.192355
-0.166663
-0.139327
-0.113607
-0.0956424
-0.0927926
-0.100985
-0.105614
-0.105385
-0.105142
-0.104717
-0.104236
-0.103905
-0.104004
-0.104836
-0.106691
-0.109832
-0.11449
-0.120867
-0.129122
-0.139366
-0.151641
-0.165903
-0.182011
-0.199713
-0.21865
-0.238367
-0.258335
-0.277983
-0.296732
-0.314031
-0.329391
-0.342401
-0.352751
-0.360231
-0.364733
-0.366247
-0.364854
-0.36071
-0.354013
-0.345041
-0.334107
-0.321504
-0.307496
-0.292308
-0.276082
-0.258843
-0.240479
-0.220719
-0.199169
-0.175359
-0.149011
-0.120807
-0.0935482
-0.0733234
-0.0687703
-0.0769144
-0.108556
-0.108437
-0.108103
-0.107265
-0.106078
-0.104813
-0.103824
-0.103488
-0.104153
-0.106123
-0.109653
-0.114953
-0.122185
-0.131454
-0.1428
-0.156177
-0.171449
-0.188372
-0.206601
-0.225701
-0.245159
-0.264421
-0.282916
-0.300097
-0.315464
-0.328593
-0.339148
-0.346894
-0.351691
-0.353499
-0.352366
-0.348424
-0.341851
-0.332889
-0.321827
-0.308946
-0.294493
-0.278672
-0.261616
-0.243341
-0.223739
-0.202547
-0.17939
-0.153892
-0.125834
-0.0957731
-0.0661563
-0.0429658
-0.0361951
-0.0440746
-0.111449
-0.111503
-0.11107
-0.109714
-0.107659
-0.105273
-0.103014
-0.101349
-0.100695
-0.101401
-0.103744
-0.107942
-0.114154
-0.122477
-0.132939
-0.145491
-0.159991
-0.176202
-0.193787
-0.212325
-0.23132
-0.250231
-0.2685
-0.285583
-0.300976
-0.314242
-0.325028
-0.333069
-0.338201
-0.340349
-0.339528
-0.335835
-0.329425
-0.320495
-0.3093
-0.296091
-0.281086
-0.264451
-0.246287
-0.226583
-0.205201
-0.18187
-0.156205
-0.12786
-0.0967576
-0.0634833
-0.0302525
-0.00295998
0.00689686
-0.000248137
-0.114492
-0.114788
-0.114217
-0.112179
-0.109034
-0.105302
-0.101572
-0.0984197
-0.0963355
-0.0957108
-0.0968441
-0.0999538
-0.105189
-0.112631
-0.122294
-0.134115
-0.147943
-0.16354
-0.180575
-0.198635
-0.217238
-0.235859
-0.25395
-0.270971
-0.286421
-0.299853
-0.310896
-0.319265
-0.324767
-0.327295
-0.32683
-0.323426
-0.317205
-0.308321
-0.296974
-0.283373
-0.26769
-0.250038
-0.230458
-0.208881
-0.185109
-0.158817
-0.129592
-0.097064
-0.0612635
-0.02301
0.0155544
0.0486608
0.0630062
0.0575645
-0.118022
-0.118602
-0.117784
-0.114802
-0.110266
-0.104912
-0.0994957
-0.094707
-0.091107
-0.0891224
-0.089062
-0.0911367
-0.0954769
-0.102142
-0.111123
-0.122337
-0.135621
-0.150729
-0.167331
-0.18502
-0.203326
-0.221735
-0.239711
-0.256722
-0.272268
-0.285897
-0.297225
-0.305949
-0.311848
-0.314785
-0.314703
-0.311615
-0.305595
-0.296751
-0.285221
-0.271148
-0.254645
-0.23575
-0.214415
-0.190476
-0.163632
-0.133451
-0.0994319
-0.0611629
-0.0186794
0.0268657
0.0730126
0.11419
0.135177
0.133206
-0.122616
-0.123442
-0.122128
-0.11778
-0.111436
-0.104125
-0.0967891
-0.0902323
-0.0850686
-0.0817382
-0.0805448
-0.0816797
-0.0852445
-0.0912675
-0.0997099
-0.110464
-0.12335
-0.138111
-0.154412
-0.171851
-0.189966
-0.208252
-0.226184
-0.243241
-0.258925
-0.27278
-0.284415
-0.293508
-0.299815
-0.303168
-0.303473
-0.300702
-0.294874
-0.286045
-0.274279
-0.259643
-0.242163
-0.221784
-0.198334
-0.171513
-0.140856
-0.105761
-0.0655578
-0.0197115
0.0317686
0.0875989
0.144429
0.196606
0.227426
0.231728
-0.129344
-0.130145
-0.127789
-0.121393
-0.112664
-0.102989
-0.0934907
-0.0850578
-0.0783257
-0.0737143
-0.071494
-0.0718226
-0.0747616
-0.0802996
-0.0883631
-0.0988165
-0.111458
-0.126016
-0.142152
-0.159462
-0.17749
-0.19574
-0.213698
-0.23085
-0.246703
-0.260801
-0.272745
-0.2822
-0.288899
-0.292647
-0.293315
-0.290828
-0.285155
-0.276288
-0.264218
-0.248915
-0.2303
-0.208193
-0.182271
-0.15204
-0.116812
-0.0757249
-0.0278387
0.0276248
0.09081
0.16043
0.232459
0.299973
0.346136
0.361696
-0.140274
-0.140165
-0.135611
-0.126062
-0.114153
-0.10162
-0.0897071
-0.0793213
-0.0710611
-0.0652797
-0.0621791
-0.0618644
-0.0643459
-0.0695657
-0.0774117
-0.0877177
-0.100259
-0.114748
-0.130838
-0.148124
-0.166153
-0.184437
-0.202469
-0.219745
-0.235775
-0.250107
-0.262335
-0.272114
-0.279159
-0.283248
-0.284219
-0.281954
-0.27637
-0.267393
-0.254936
-0.238863
-0.218967
-0.194915
-0.166197
-0.132076
-0.0915678
-0.0434525
0.0136108
0.0808072
0.158621
0.245951
0.338701
0.428458
0.499184
0.536638
-0.159439
-0.156088
-0.146924
-0.132414
-0.116224
-0.10023
-0.0856358
-0.0732488
-0.0635402
-0.0567294
-0.0529176
-0.0521363
-0.0543311
-0.0593919
-0.0671664
-0.0774569
-0.0900155
-0.10454
-0.120673
-0.138007
-0.156091
-0.174443
-0.192566
-0.209961
-0.226146
-0.240671
-0.253128
-0.263163
-0.270478
-0.274828
-0.27602
-0.273897
-0.268322
-0.259157
-0.246232
-0.229304
-0.208021
-0.181875
-0.150135
-0.111779
-0.065457
-0.00948712
0.0580377
0.138952
0.234394
0.343748
0.463067
0.584094
0.688087
0.761293
-0.194463
-0.182427
-0.163612
-0.141091
-0.119085
-0.0989078
-0.0813515
-0.0669506
-0.0559034
-0.048231
-0.0439097
-0.0428557
-0.0449372
-0.0499895
-0.0578199
-0.0682008
-0.0808626
-0.0954882
-0.111713
-0.129126
-0.14728
-0.165699
-0.183893
-0.201372
-0.217662
-0.232316
-0.244928
-0.25514
-0.26264
-0.267167
-0.268498
-0.266442
-0.260811
-0.251405
-0.237969
-0.220156
-0.197464
-0.169205
-0.134413
-0.0917582
-0.0394791
0.0246595
0.103317
0.199342
0.315172
0.451638
0.605848
0.768905
0.910124
1.01581
-0.263997
-0.226532
-0.186119
-0.150474
-0.12082
-0.0959271
-0.0754948
-0.0594211
-0.0474422
-0.0393071
-0.0348207
-0.0337841
-0.0359875
-0.0412167
-0.0492453
-0.0598227
-0.072663
-0.0874401
-0.103785
-0.121289
-0.139509
-0.157978
-0.176215
-0.193741
-0.210091
-0.224825
-0.237539
-0.247871
-0.255503
-0.260158
-0.261592
-0.259577
-0.253884
-0.244252
-0.230354
-0.211739
-0.187786
-0.157639
-0.120119
-0.0736118
-0.0159644
0.0556236
0.144666
0.255379
0.392437
0.560283
0.76106
0.988507
1.19735
1.35019
-0.440416
-0.294312
-0.200035
-0.149025
-0.113343
-0.0847735
-0.062974
-0.0468989
-0.0353402
-0.0277509
-0.0238768
-0.0234627
-0.0262509
-0.032005
-0.0404925
-0.0514605
-0.0646238
-0.0796595
-0.0962058
-0.113864
-0.132201
-0.150765
-0.169087
-0.186701
-0.203151
-0.218006
-0.230866
-0.241367
-0.249185
-0.254032
-0.255643
-0.253766
-0.248138
-0.238452
-0.224322
-0.205233
-0.180479
-0.149096
-0.109759
-0.0606632
0.000611836
0.0772763
0.173544
0.294938
0.448755
0.644866
0.896589
1.21957
1.61029
2.05902
-0.893886
-0.379918
-0.17436
-0.128927
-0.0962595
-0.0648271
-0.0431701
-0.0291326
-0.0194815
-0.0133966
-0.0108077
-0.0115089
-0.0152382
-0.0217765
-0.0309178
-0.0424305
-0.0560464
-0.0714584
-0.0883205
-0.106249
-0.124829
-0.143619
-0.162165
-0.180012
-0.196713
-0.211842
-0.225
-0.235824
-0.243983
-0.24918
-0.251139
-0.249591
-0.244253
-0.234798
-0.220817
-0.201767
-0.17691
-0.14524
-0.105385
-0.0554837
0.00696555
0.0853143
0.184071
0.309431
0.470327
0.680811
0.965848
1.37912
2.04919
3.20184
)
;

boundaryField
{
    movingWall
    {
        type            zeroGradient;
    }
    fixedWalls
    {
        type            zeroGradient;
    }
    frontAndBack
    {
        type            empty;
    }
}


// ************************************************************************* //
