/*--------------------------------*- C++ -*----------------------------------*\
  =========                 |
  \\      /  F ield         | OpenFOAM: The Open Source CFD Toolbox
   \\    /   O peration     | Website:  https://openfoam.org
    \\  /    A nd           | Version:  7
     \\/     M anipulation  |
\*---------------------------------------------------------------------------*/
FoamFile
{
    version     2.0;
    format      ascii;
    class       surfaceScalarField;
    location    "50";
    object      phi;
}
// * * * * * * * * * * * * * * * * * * * * * * * * * * * * * * * * * * * * * //

dimensions      [0 3 -1 0 0 0 0];

internalField   nonuniform List<scalar> 
4900
(
-1.97493e-06
-2.5268e-06
-3.59956e-07
-1.64644e-06
1.4598e-08
-3.97723e-07
-2.08243e-07
2.00924e-07
-8.40285e-07
6.08603e-07
-1.78598e-06
9.20361e-07
-2.97604e-06
1.16336e-06
-4.35834e-06
1.35481e-06
-5.89674e-06
1.51062e-06
-7.56752e-06
1.64316e-06
-9.35529e-06
1.76056e-06
-1.12482e-05
1.86649e-06
-1.32343e-05
1.96052e-06
-1.52976e-05
2.03896e-06
-1.74162e-05
2.09544e-06
-1.95602e-05
2.12207e-06
-2.16907e-05
2.10986e-06
-2.37599e-05
2.04992e-06
-2.57119e-05
1.9337e-06
-2.74831e-05
1.75423e-06
-2.90056e-05
1.50633e-06
-3.02084e-05
1.1878e-06
-3.10223e-05
7.99531e-07
-3.13823e-05
3.465e-07
-3.12329e-05
-1.62359e-07
-3.05319e-05
-7.13228e-07
-2.92564e-05
-1.28733e-06
-2.74063e-05
-1.86126e-06
-2.50083e-05
-2.40875e-06
-2.21167e-05
-2.90185e-06
-1.88133e-05
-3.31331e-06
-1.52045e-05
-3.61826e-06
-1.1417e-05
-3.79666e-06
-7.59086e-06
-3.8348e-06
-3.87216e-06
-3.72709e-06
-4.03684e-07
-3.47646e-06
2.6835e-06
-3.09486e-06
5.27856e-06
-2.60233e-06
7.2964e-06
-2.02477e-06
8.68205e-06
-1.39217e-06
9.41326e-06
-7.37422e-07
9.50112e-06
-9.37146e-08
8.98902e-06
5.06472e-07
7.95222e-06
1.03141e-06
6.49953e-06
1.44749e-06
4.77925e-06
1.71539e-06
2.98946e-06
1.78518e-06
1.3902e-06
1.59416e-06
3.05471e-07
1.0806e-06
3.045e-07
-1.17781e-06
-1.38454e-06
-1.28209e-06
-1.61347e-06
-1.71222e-06
-3.0222e-08
-2.99064e-06
1.4173e-06
-5.12602e-06
2.67876e-06
-8.00767e-06
3.73325e-06
-1.15116e-05
4.59597e-06
-1.55312e-05
5.30166e-06
-1.99829e-05
5.88943e-06
-2.48045e-05
6.39241e-06
-2.99474e-05
6.83274e-06
-3.5369e-05
7.21949e-06
-4.10238e-05
7.54937e-06
-4.68563e-05
7.80832e-06
-5.27949e-05
7.97431e-06
-5.87493e-05
8.01985e-06
-6.46077e-05
7.91512e-06
-7.02381e-05
7.63027e-06
-7.54897e-05
7.13843e-06
-8.01976e-05
6.41783e-06
-8.41874e-05
5.45461e-06
-8.72836e-05
4.24472e-06
-8.93174e-05
2.79616e-06
-9.01363e-05
1.12995e-06
-8.96135e-05
-7.18815e-07
-8.76589e-05
-2.69998e-06
-8.42299e-05
-4.74695e-06
-7.93405e-05
-6.78005e-06
-7.30667e-05
-8.71057e-06
-6.55493e-05
-1.04463e-05
-5.69912e-05
-1.18972e-05
-4.76522e-05
-1.29821e-05
-3.78376e-05
-1.36351e-05
-2.78845e-05
-1.38107e-05
-1.81444e-05
-1.34891e-05
-8.96409e-06
-1.26779e-05
-6.66158e-07
-1.14128e-05
6.46904e-06
-9.75667e-06
1.22215e-05
-7.79538e-06
1.6442e-05
-5.62977e-06
1.90577e-05
-3.36947e-06
2.00777e-05
-1.12915e-06
1.95932e-05
9.7615e-07
1.77779e-05
2.8324e-06
1.48897e-05
4.32201e-06
1.12765e-05
5.31544e-06
7.38554e-06
5.6633e-06
3.77264e-06
5.19608e-06
1.08586e-06
3.7549e-06
1.38919e-06
-5.30983e-07
-8.84792e-07
-1.75184e-06
-4.69874e-07
-3.72011e-06
1.8684e-06
-6.75589e-06
4.3861e-06
-1.08863e-05
6.74146e-06
-1.60187e-05
8.79622e-06
-2.20239e-05
1.05304e-05
-2.87765e-05
1.19826e-05
-3.61689e-05
1.32103e-05
-4.41128e-05
1.42657e-05
-5.25322e-05
1.51832e-05
-6.13537e-05
1.59742e-05
-7.0496e-05
1.66275e-05
-7.98611e-05
1.71121e-05
-8.93274e-05
1.73824e-05
-9.87459e-05
1.73835e-05
-0.000107939
1.70563e-05
-0.000116701
1.6344e-05
-0.000124805
1.51964e-05
-0.000132005
1.35752e-05
-0.00013805
1.14588e-05
-0.00014269
8.84626e-06
-0.000145691
5.76062e-06
-0.000146847
2.25086e-06
-0.000145991
-1.60765e-06
-0.000143011
-5.71111e-06
-0.000137863
-9.9255e-06
-0.000130578
-1.40936e-05
-0.000121272
-1.8043e-05
-0.000110149
-2.15958e-05
-9.74919e-05
-2.45794e-05
-8.36602e-05
-2.68378e-05
-6.9075e-05
-2.82433e-05
-5.42011e-05
-2.87066e-05
-3.95265e-05
-2.81848e-05
-2.55373e-05
-2.66872e-05
-1.26932e-05
-2.42763e-05
-1.40273e-06
-2.10655e-05
7.99798e-06
-1.72137e-05
1.52675e-05
-1.2916e-05
2.02716e-05
-8.38942e-06
2.29896e-05
-3.86226e-06
2.35197e-05
4.31511e-07
2.20816e-05
4.25645e-06
1.90161e-05
7.37394e-06
1.47872e-05
9.53168e-06
9.98463e-06
1.04542e-05
5.32051e-06
9.84488e-06
1.63431e-06
7.4327e-06
3.02219e-06
-7.33928e-07
-1.83916e-07
-2.96217e-06
1.67891e-06
-6.54465e-06
5.37769e-06
-1.154e-05
9.31146e-06
-1.78804e-05
1.30127e-05
-2.54351e-05
1.62813e-05
-3.40551e-05
1.90803e-05
-4.35994e-05
2.14568e-05
-5.39451e-05
2.34865e-05
-6.49862e-05
2.52383e-05
-7.66245e-05
2.67547e-05
-8.87594e-05
2.80444e-05
-0.000101276
2.9082e-05
-0.000114036
2.98127e-05
-0.00012687
3.01604e-05
-0.000139576
3.00361e-05
-0.000151916
2.93469e-05
-0.000163624
2.80047e-05
-0.000174406
2.59344e-05
-0.000183955
2.30819e-05
-0.000191956
1.94208e-05
-0.000198106
1.49586e-05
-0.000202122
9.7412e-06
-0.00020376
3.85485e-06
-0.000202826
-2.57425e-06
-0.00019919
-9.37736e-06
-0.000192805
-1.63397e-05
-0.000183713
-2.32135e-05
-0.000172054
-2.97291e-05
-0.000158066
-3.56092e-05
-0.000142085
-4.05849e-05
-0.000124534
-4.44119e-05
-0.000105912
-4.68874e-05
-8.67747e-05
-4.78655e-05
-6.77096e-05
-4.72701e-05
-4.93124e-05
-4.51038e-05
-3.21556e-05
-4.14516e-05
-1.676e-05
-3.64787e-05
-3.5674e-06
-3.04231e-05
7.08419e-06
-2.35835e-05
1.49833e-05
-1.63038e-05
2.00591e-05
-8.95266e-06
2.23871e-05
-1.91057e-06
2.21945e-05
4.43533e-06
1.98599e-05
9.69556e-06
1.59104e-05
1.34687e-05
1.10204e-05
1.53312e-05
6.01784e-06
1.48385e-05
1.89348e-06
1.15434e-05
4.91457e-06
-1.15672e-06
9.41263e-07
-4.5513e-06
4.99563e-06
-9.8885e-06
1.06404e-05
-1.70127e-05
1.63641e-05
-2.57355e-05
2.16654e-05
-3.58619e-05
2.63383e-05
-4.72105e-05
3.03598e-05
-5.96232e-05
3.38009e-05
-7.29653e-05
3.67609e-05
-8.71183e-05
3.93249e-05
-0.000101968
4.154e-05
-0.000117392
4.34058e-05
-0.000133246
4.4876e-05
-0.000149355
4.58655e-05
-0.00016551
4.62613e-05
-0.00018146
4.59354e-05
-0.000196918
4.47569e-05
-0.000211563
4.26044e-05
-0.000225049
3.93776e-05
-0.000237015
3.50075e-05
-0.000247098
2.94657e-05
-0.000254948
2.27723e-05
-0.000260243
1.5001e-05
-0.000262703
6.28164e-06
-0.000262106
-3.20248e-06
-0.000258301
-1.32128e-05
-0.000251224
-2.34457e-05
-0.00024091
-3.35548e-05
-0.000227501
-4.31644e-05
-0.000211247
-5.18878e-05
-0.000192509
-5.93473e-05
-0.000171747
-6.51966e-05
-0.000149513
-6.9143e-05
-0.00012643
-7.09685e-05
-0.000103171
-7.05485e-05
-8.0428e-05
-6.78654e-05
-5.88805e-05
-6.30165e-05
-3.91622e-05
-5.62135e-05
-2.18263e-05
-4.77748e-05
-7.31492e-06
-3.811e-05
4.06658e-06
-2.76997e-05
1.21729e-05
-1.70728e-05
1.7032e-05
-6.78303e-06
1.885e-05
2.60421e-06
1.80122e-05
1.05208e-05
1.5078e-05
1.63912e-05
1.07801e-05
1.9619e-05
6.02407e-06
1.95783e-05
1.93255e-06
1.56285e-05
6.84587e-06
-1.6738e-06
2.5863e-06
-6.36469e-06
9.60912e-06
-1.35789e-05
1.77802e-05
-2.29632e-05
2.56767e-05
-3.41989e-05
3.28313e-05
-4.70147e-05
3.90855e-05
-6.11889e-05
4.44663e-05
-7.65443e-05
4.90895e-05
-9.29368e-05
5.30879e-05
-0.00011024
5.65644e-05
-0.00012833
5.95675e-05
-0.000147066
6.20824e-05
-0.000166282
6.40355e-05
-0.000185776
6.53046e-05
-0.0002053
6.57347e-05
-0.000224567
6.5154e-05
-0.000243247
6.33908e-05
-0.000260974
6.02885e-05
-0.000277358
5.57206e-05
-0.000291992
4.96036e-05
-0.000304471
4.19079e-05
-0.000314401
3.26672e-05
-0.000321418
2.19847e-05
-0.000325204
1.00356e-05
-0.0003255
-2.93767e-06
-0.000322114
-1.66278e-05
-0.00031495
-3.06379e-05
-0.000304013
-4.45189e-05
-0.000289421
-5.77822e-05
-0.000271411
-6.99216e-05
-0.000250344
-8.04378e-05
-0.000226696
-8.8866e-05
-0.000201055
-9.48043e-05
-0.000174102
-9.79416e-05
-0.000146586
-9.80832e-05
-0.000119297
-9.51718e-05
-9.30291e-05
-8.93005e-05
-6.85413e-05
-8.07167e-05
-4.65155e-05
-6.98151e-05
-2.75185e-05
-5.71208e-05
-1.19676e-05
-4.32639e-05
-1.04469e-07
-2.89489e-05
8.02531e-06
-1.49253e-05
1.25826e-05
-1.96519e-06
1.39379e-05
9.15396e-06
1.26642e-05
1.76536e-05
9.53133e-06
2.27397e-05
5.51626e-06
2.35875e-05
1.81337e-06
1.93177e-05
8.65832e-06
-2.23323e-06
4.78932e-06
-8.31606e-06
1.56187e-05
-1.75013e-05
2.68931e-05
-2.92399e-05
3.7345e-05
-4.30797e-05
4.66027e-05
-5.86681e-05
5.4607e-05
-7.57404e-05
6.14729e-05
-9.41001e-05
6.73849e-05
-0.000113596
7.25211e-05
-0.000134099
7.70064e-05
-0.000155479
8.08885e-05
-0.000177587
8.41336e-05
-0.00020024
8.66345e-05
-0.000223213
8.82267e-05
-0.000246235
8.87077e-05
-0.000268985
8.78583e-05
-0.000291099
8.54623e-05
-0.000312177
8.13259e-05
-0.000331789
7.52942e-05
-0.000349488
6.7267e-05
-0.000364826
5.72111e-05
-0.000377363
4.51714e-05
-0.000386687
3.12776e-05
-0.00039243
1.57475e-05
-0.000394279
-1.11818e-06
-0.000391986
-1.89495e-05
-0.000385395
-3.72564e-05
-0.000374456
-5.54838e-05
-0.000359238
-7.30245e-05
-0.000339941
-8.92424e-05
-0.0003169
-0.000103501
-0.000290589
-0.000115198
-0.000261616
-0.000123796
-0.000230712
-0.000128865
-0.000198703
-0.00013011
-0.000166484
-0.000127406
-0.000134979
-0.000120821
-0.000105092
-0.000110618
-7.76604e-05
-9.72604e-05
-5.34039e-05
-8.13899e-05
-3.28828e-05
-6.37969e-05
-1.64603e-05
-4.53829e-05
-4.27803e-06
-2.71189e-05
3.75679e-06
-1.00111e-05
7.9787e-06
4.92116e-06
8.96052e-06
1.6662e-05
7.50249e-06
2.41899e-05
4.62247e-06
2.64512e-05
1.59037e-06
2.23459e-05
1.02476e-05
-2.82295e-06
7.5873e-06
-1.03542e-05
2.30777e-05
-2.15698e-05
3.80385e-05
-3.572e-05
5.14273e-05
-5.2217e-05
6.30337e-05
-7.0626e-05
7.29518e-05
-9.064e-05
8.14241e-05
-0.000112046
8.87292e-05
-0.000134688
9.51043e-05
-0.00015844
0.000100701
-0.000183172
0.000105565
-0.000208731
0.000109639
-0.000234926
0.000112779
-0.000261519
0.000114772
-0.000288219
0.000115363
-0.000314685
0.000114282
-0.000340525
0.000111263
-0.00036531
0.000106073
-0.000388574
9.85236e-05
-0.000409833
8.84928e-05
-0.000428592
7.59384e-05
-0.00044436
6.09094e-05
-0.000456666
4.35549e-05
-0.000465076
2.41292e-05
-0.000469208
2.9857e-06
-0.000468735
-1.94489e-05
-0.000463419
-4.25979e-05
-0.00045313
-6.5797e-05
-0.000437862
-8.83155e-05
-0.00041775
-0.000109377
-0.000393081
-0.000128191
-0.000364306
-0.000143992
-0.000332038
-0.000156082
-0.000297045
-0.000163874
-0.000260232
-0.000166939
-0.000222604
-0.000165049
-0.000185231
-0.000158207
-0.000149189
-0.000146672
-0.000115503
-0.000130958
-8.50839e-05
-0.00011182
-5.86722e-05
-9.0219e-05
-3.67903e-05
-6.72747e-05
-1.9707e-05
-4.42121e-05
-7.41819e-06
-2.23096e-05
3.55755e-07
-2.86206e-06
4.17183e-06
1.28366e-05
4.84745e-06
2.35035e-05
3.45404e-06
2.78423e-05
1.29503e-06
2.44919e-05
1.15419e-05
-3.42894e-06
1.09874e-05
-1.2437e-05
3.20194e-05
-2.57097e-05
5.1245e-05
-4.22916e-05
6.79449e-05
-6.14601e-05
8.21397e-05
-8.2701e-05
9.41321e-05
-0.000105668
0.000104332
-0.000130135
0.000113139
-0.000155948
0.000120862
-0.000182987
0.000127686
-0.000211128
0.000133654
-0.000240222
0.000138685
-0.000270077
0.000142588
-0.000300448
0.000145101
-0.000331036
0.00014591
-0.000361482
0.00014469
-0.000391378
0.000141123
-0.000420265
0.000134927
-0.000447649
0.000125876
-0.000473002
0.000113817
-0.000495782
9.86904e-05
-0.000515438
8.05385e-05
-0.000531429
5.95201e-05
-0.00054324
3.5915e-05
-0.000550401
1.01224e-05
-0.000552499
-1.73754e-05
-0.000549184
-4.59354e-05
-0.000540228
-7.47757e-05
-0.000525524
-0.000103039
-0.00050512
-0.000129801
-0.000479229
-0.000154101
-0.000448252
-0.000174987
-0.000412785
-0.000191566
-0.000373618
-0.000203057
-0.000331719
-0.000208852
-0.000288209
-0.000208571
-0.000244315
-0.000202113
-0.000201311
-0.000189688
-0.000160444
-0.000171835
-0.000122861
-0.000149412
-8.95327e-05
-0.000123556
-6.11874e-05
-9.56284e-05
-3.82633e-05
-6.71443e-05
-2.08799e-05
-3.97011e-05
-8.83057e-06
-1.49196e-05
-1.58996e-06
5.58865e-06
1.67397e-06
2.02345e-05
2.06335e-06
2.74374e-05
9.55534e-07
2.55987e-05
1.24965e-05
-4.03854e-06
1.5005e-05
-1.45271e-05
4.24433e-05
-2.98477e-05
6.65033e-05
-4.88422e-05
8.68792e-05
-7.06563e-05
0.000103896
-9.47013e-05
0.000118121
-0.000120597
0.000130174
-0.000148109
0.000140598
-0.000177089
0.000149792
-0.000207429
0.000157977
-0.000239018
0.000165197
-0.000271715
0.000171339
-0.000305336
0.000176168
-0.000339636
0.000179362
-0.000374311
0.00018055
-0.000408995
0.000179341
-0.000443263
0.000175361
-0.000476635
0.000168271
-0.000508584
0.000157798
-0.00053854
0.000143749
-0.000565905
0.000126033
-0.000590064
0.000104675
-0.000610396
7.98308e-05
-0.000626296
5.17951e-05
-0.000637198
2.10039e-05
-0.00064259
-1.20032e-05
-0.000641999
-4.65452e-05
-0.00063508
-8.17128e-05
-0.000621613
-0.000116524
-0.000601529
-0.000149901
-0.000574943
-0.000180702
-0.000542176
-0.000207769
-0.000503771
-0.000229984
-0.000460508
-0.000246332
-0.000413399
-0.000255973
-0.000363663
-0.000258318
-0.000312685
-0.0002531
-0.000261953
-0.000240428
-0.000212975
-0.000220821
-0.000167182
-0.000195212
-0.000125833
-0.000164912
-8.99234e-05
-0.000131544
-6.01191e-05
-9.69549e-05
-3.67099e-05
-6.31167e-05
-1.95958e-05
-3.20398e-05
-8.29958e-06
-5.71394e-06
-1.98943e-06
1.39157e-05
4.94949e-07
2.49545e-05
5.78873e-07
2.55029e-05
1.3075e-05
-4.64312e-06
1.96214e-05
-1.65829e-05
5.43268e-05
-3.39057e-05
8.37698e-05
-5.52523e-05
0.000108171
-7.96437e-05
0.000128235
-0.000106423
0.00014485
-0.000135182
0.000158883
-0.000165683
0.000171052
-0.000197789
0.000181854
-0.000231409
0.000191554
-0.000266448
0.000200195
-0.000302781
0.000207634
-0.000340234
0.000213586
-0.00037857
0.000217666
-0.000417485
0.000219435
-0.000456608
0.000218437
-0.000495501
0.000214229
-0.000533662
0.00020641
-0.000570529
0.000194645
-0.000605491
0.000178692
-0.00063789
0.000158415
-0.000667042
0.000133811
-0.000692246
0.000105019
-0.000712804
7.23392e-05
-0.000728049
3.62342e-05
-0.000737373
-2.69436e-06
-0.000740183
-4.37491e-05
-0.000736008
-8.59007e-05
-0.000724502
-0.000128043
-0.000705467
-0.000168949
-0.000678887
-0.000207293
-0.000644963
-0.000241703
-0.000604145
-0.000270811
-0.000557156
-0.00029333
-0.000505001
-0.000308136
-0.000448963
-0.000314365
-0.000390564
-0.000311506
-0.000331509
-0.000299489
-0.00027359
-0.000278746
-0.000218573
-0.000250235
-0.000168071
-0.000215419
-0.000123425
-0.000176194
-8.56045e-05
-0.00013478
-5.51354e-05
-9.35902e-05
-3.20757e-05
-5.51042e-05
-1.60238e-05
-2.17698e-05
-6.15355e-06
4.04369e-06
-1.26696e-06
2.00542e-05
1.73552e-07
2.40645e-05
1.32479e-05
-5.22367e-06
2.48294e-05
-1.856e-05
6.76097e-05
-3.77987e-05
0.000102958
-6.1393e-05
0.000131717
-8.82479e-05
0.000155043
-0.000117646
0.000174204
-0.000149157
0.000190352
-0.000182546
0.0002044
-0.00021769
0.00021696
-0.000254518
0.000228345
-0.000292955
0.000238599
-0.000332897
0.000247544
-0.000374181
0.000254842
-0.000416582
0.000260041
-0.000459799
0.000262629
-0.000503457
0.000262075
-0.000547103
0.000257858
-0.000590214
0.000249504
-0.000632192
0.000236609
-0.000672378
0.000218866
-0.000710059
0.000196086
-0.000744483
0.000168225
-0.000774874
0.000135402
-0.000800452
9.79104e-05
-0.000820459
5.62342e-05
-0.000834191
1.10299e-05
-0.000840974
-3.69728e-05
-0.000840206
-8.66762e-05
-0.000831416
-0.000136839
-0.000814265
-0.000186105
-0.000788585
-0.00023298
-0.000754415
-0.000275878
-0.000712057
-0.000313175
-0.000662107
-0.000343285
-0.000605496
-0.000364752
-0.000543501
-0.000376363
-0.000477734
-0.000377277
-0.000410086
-0.000367139
-0.000342639
-0.000346195
-0.000277532
-0.000315345
-0.000216802
-0.00027615
-0.000162229
-0.000230769
-0.000115181
-0.00018183
-7.65145e-05
-0.000132259
-4.6518e-05
-8.51028e-05
-2.49141e-05
-4.33765e-05
-1.09082e-05
-9.96762e-06
-3.238e-06
1.23897e-05
-2.73432e-07
2.10902e-05
1.29744e-05
-5.77211e-06
3.05786e-05
-2.04086e-05
8.22039e-05
-4.14342e-05
0.000123941
-6.71254e-05
0.000157368
-9.62825e-05
0.000184161
-0.000128136
0.00020602
-0.000162238
0.000224419
-0.000198359
0.000240487
-0.000236395
0.000254964
-0.000276294
0.000268215
-0.000318006
0.000280285
-0.000361445
0.000290959
-0.000406466
0.000299841
-0.00045285
0.000306406
-0.0005003
0.000310064
-0.000548434
0.000310196
-0.000596785
0.000306199
-0.0006448
0.000297511
-0.000691846
0.00028365
-0.000737218
0.000264233
-0.000780149
0.000239014
-0.000819828
0.000207904
-0.000855421
0.000170995
-0.000886086
0.000128577
-0.000910999
8.11492e-05
-0.000929382
2.94148e-05
-0.000940526
-2.58269e-05
-0.000943708
-8.34927e-05
-0.000938356
-0.00014219
-0.000923992
-0.000200467
-0.000900276
-0.000256694
-0.000867055
-0.000309098
-0.000824414
-0.000355814
-0.000772746
-0.000394952
-0.00071281
-0.000424687
-0.000645779
-0.000443395
-0.000573257
-0.000449798
-0.000497257
-0.000443139
-0.000420117
-0.000423335
-0.000344363
-0.000391099
-0.000272519
-0.000347994
-0.000206898
-0.00029639
-0.000149391
-0.000239337
-0.000101307
-0.000180343
-6.32701e-05
-0.00012314
-3.52041e-05
-7.14423e-05
-1.63751e-05
-2.87942e-05
-5.49391e-06
1.49757e-06
-7.70283e-07
1.63722e-05
1.22038e-05
-6.26332e-06
3.68329e-05
-2.20763e-05
9.79788e-05
-4.47149e-05
0.000146544
-7.23038e-05
0.000184924
-0.000103552
0.000215378
-0.000137644
0.000240083
-0.000174121
0.000260869
-0.000212759
0.0002791
-0.000253473
0.000295654
-0.000296232
0.000310953
-0.000341007
0.000325041
-0.000387731
0.000337667
-0.00043627
0.000348366
-0.000486414
0.000356539
-0.000537862
0.000361504
-0.000590222
0.000362551
-0.000643005
0.000358979
-0.000695625
0.000350132
-0.000747411
0.000335438
-0.000797613
0.00031444
-0.00084542
0.000286827
-0.000889979
0.000252471
-0.000930417
0.000211443
-0.000965865
0.000164036
-0.000995475
0.000110771
-0.00101844
5.2391e-05
-0.00103404
-1.02144e-05
-0.0010415
-7.60193e-05
-0.00104018
-0.000143502
-0.00102947
-0.000211159
-0.00100889
-0.000277273
-0.000978031
-0.000339943
-0.000936732
-0.000397105
-0.000885087
-0.000446589
-0.000823567
-0.0004862
-0.000753108
-0.000513848
-0.000675169
-0.000527731
-0.000591762
-0.000526541
-0.000505397
-0.000509696
-0.000418953
-0.000477539
-0.000335473
-0.00043147
-0.000257896
-0.000373964
-0.000188774
-0.000308456
-0.000130021
-0.000239094
-8.27458e-05
-0.000170412
-4.71857e-05
-0.000107001
-2.27464e-05
-5.32348e-05
-8.10233e-06
-1.31361e-05
-1.34669e-06
9.60998e-06
1.08575e-05
-6.68989e-06
4.35055e-05
-2.3508e-05
0.000114773
-4.75402e-05
0.000170552
-7.67785e-05
0.000214138
-0.000109855
0.000248432
-0.000145916
0.000276124
-0.000184493
0.000299427
-0.000225369
0.000319959
-0.000268473
0.000338743
-0.000313794
0.000356262
-0.00036132
0.000372557
-0.000410997
0.000387336
-0.0004627
0.000400064
-0.000516218
0.000410054
-0.000571241
0.000416528
-0.000627357
0.000418671
-0.000684047
0.000415675
-0.000740689
0.000406784
-0.000796571
0.000391331
-0.000850902
0.000368784
-0.000902836
0.000338777
-0.0009515
0.000301152
-0.000996016
0.000255979
-0.00103553
0.000203569
-0.00106921
0.000144478
-0.00109629
7.94924e-05
-0.00111607
9.58686e-06
-0.00112782
-6.42368e-05
-0.00113087
-0.000140431
-0.00112455
-0.000217457
-0.00110821
-0.000293594
-0.00108125
-0.000366888
-0.00104317
-0.00043516
-0.000993719
-0.000496026
-0.00093295
-0.000546954
-0.000861404
-0.000585382
-0.000780219
-0.000608906
-0.00069122
-0.000615531
-0.000596934
-0.000603973
-0.000500498
-0.000573968
-0.000405448
-0.000526514
-0.000315412
-0.000463994
-0.000233739
-0.000390124
-0.000163133
-0.000309694
-0.000105379
-0.000228162
-6.11904e-05
-0.000151184
-3.02188e-05
-8.41994e-05
-1.11849e-05
-3.21765e-05
-2.02377e-06
4.58412e-07
8.83387e-06
-7.02349e-06
5.05279e-05
-2.465e-05
0.00013238
-4.98112e-05
0.000195697
-8.04021e-05
0.000244715
-0.000114993
0.00028301
-0.0001527
0.00031382
-0.000193044
0.00033976
-0.00023581
0.000362717
-0.00028094
0.000383866
-0.000328434
0.000403751
-0.000378292
0.000422413
-0.000430465
0.00043951
-0.00048483
0.000454432
-0.000541164
0.000466395
-0.000599141
0.000474514
-0.000658317
0.000477859
-0.000718136
0.000475508
-0.000777934
0.000466599
-0.000836954
0.000450372
-0.000894371
0.000426224
-0.00094932
0.000393752
-0.00100093
0.000352789
-0.00104835
0.00030343
-0.00109078
0.000246034
-0.00112749
0.000181216
-0.00115778
0.000109823
-0.00118105
3.28903e-05
-0.00119672
-4.85295e-05
-0.00120413
-0.000132993
-0.00120261
-0.000218944
-0.00119142
-0.000304747
-0.00116978
-0.000388502
-0.00113688
-0.000468028
-0.00109205
-0.00054084
-0.00103482
-0.00060416
-0.000965184
-0.000654997
-0.000883752
-0.000690321
-0.00079193
-0.000707338
-0.000692029
-0.000703862
-0.000587252
-0.000678734
-0.000481523
-0.000632232
-0.00037916
-0.000566348
-0.000284416
-0.000484859
-0.000200984
-0.000393119
-0.000131554
-0.000297584
-7.75433e-05
-0.000205188
-3.90254e-05
-0.000122714
-1.48392e-05
-5.63476e-05
-2.84161e-06
-1.1541e-05
5.9931e-06
-7.25943e-06
5.77772e-05
-2.54505e-05
0.000150568
-5.14339e-05
0.000221675
-8.30349e-05
0.000276311
-0.000118779
0.000318751
-0.000157757
0.000352795
-0.000199475
0.000381477
-0.000243718
0.000406962
-0.000290431
0.000430581
-0.000339618
0.000452944
-0.000391283
0.000474084
-0.000445373
0.000493609
-0.000501753
0.000510824
-0.000560183
0.000524841
-0.000620306
0.000534654
-0.000681637
0.000539211
-0.000743576
0.000537471
-0.000805411
0.000528459
-0.000866341
0.000511332
-0.000925515
0.00048543
-0.000982062
0.000450334
-0.00103514
0.000405902
-0.00108396
0.000352289
-0.00112782
0.00028994
-0.00116612
0.000219566
-0.00119835
0.000142096
-0.00122403
5.86217e-05
-0.0012428
-2.97198e-05
-0.0012541
-0.00012164
-0.00125738
-0.000215624
-0.00125187
-0.00031021
-0.00123667
-0.000403668
-0.00121071
-0.000493955
-0.00117287
-0.000578639
-0.00112216
-0.000654843
-0.00105787
-0.000719264
-0.000979867
-0.000768297
-0.000888884
-0.000798301
-0.000786714
-0.000806013
-0.000676342
-0.000789091
-0.000561862
-0.000746699
-0.000448177
-0.000680021
-0.000340489
-0.000592536
-0.000243652
-0.000489945
-0.00016153
-0.000379696
-9.65237e-05
-0.000270184
-4.93629e-05
-0.000169863
-1.91952e-05
-8.65156e-05
-3.82703e-06
-2.68959e-05
2.16683e-06
-7.37066e-06
6.51554e-05
-2.58649e-05
0.000169064
-5.23253e-05
0.00024814
-8.45524e-05
0.000308544
-0.000121044
0.000355249
-0.000160868
0.000392626
-0.000203515
0.000424132
-0.000248761
0.000452217
-0.000296542
0.000478373
-0.00034686
0.000503275
-0.000399708
0.000526948
-0.000455022
0.000548941
-0.000512646
0.000568468
-0.000572308
0.000584526
-0.000633611
0.000595983
-0.000696025
0.000601654
-0.000758896
0.000600373
-0.000821461
0.000591059
-0.000882884
0.000572792
-0.000942293
0.000544878
-0.000998829
0.000506912
-0.0010517
0.000458815
-0.00110021
0.000400846
-0.0011438
0.000333583
-0.00118205
0.000257873
-0.00121466
0.000174758
-0.00124138
8.5402e-05
-0.00126205
-8.9932e-06
-0.00127638
-0.000107248
-0.00128397
-0.000207984
-0.00128414
-0.000309988
-0.00127596
-0.000411807
-0.00125818
-0.000511685
-0.00122936
-0.00060742
-0.00118793
-0.000696237
-0.00113245
-0.000774715
-0.00106189
-0.000838819
-0.000976057
-0.000884112
-0.00087588
-0.000906167
-0.000763755
-0.000901197
-0.000643601
-0.000866836
-0.000520672
-0.000802934
-0.000401043
-0.000712151
-0.000290837
-0.000600139
-0.000195351
-0.000475169
-0.000118306
-0.000347218
-6.14128e-05
-0.000226747
-2.43381e-05
-0.000123571
-5.02052e-06
-4.6209e-05
-2.85229e-06
-7.35823e-06
7.25118e-05
-2.58561e-05
0.00018758
-5.24172e-05
0.000274717
-8.48514e-05
0.000340994
-0.000121647
0.00039206
-0.000161852
0.000432847
-0.000204936
0.000467234
-0.000250656
0.000497955
-0.000298931
0.000526668
-0.000349745
0.00055411
-0.000403073
0.0005803
-0.000458828
0.000604722
-0.000516822
0.000626491
-0.000576746
0.000644481
-0.000638155
0.000657425
-0.000700467
0.000664002
-0.000762975
0.000662919
-0.000824872
0.000652997
-0.000885289
0.000633253
-0.000943348
0.000602984
-0.000998222
0.000561835
-0.00104918
0.00050983
-0.00109567
0.000447382
-0.00113727
0.000375247
-0.00117379
0.000294452
-0.00120516
0.000206188
-0.00123141
0.000111714
-0.00125261
1.22727e-05
-0.0012688
-9.09961e-05
-0.00127977
-0.000196951
-0.00128505
-0.000304654
-0.00128378
-0.000413019
-0.00127471
-0.000520705
-0.00125617
-0.000625923
-0.00122613
-0.000726228
-0.00118247
-0.000818336
-0.00112322
-0.000898035
-0.00104704
-0.00096027
-0.000953684
-0.000999492
-0.000844544
-0.00101031
-0.000722906
-0.000988454
-0.000593976
-0.000931846
-0.000464466
-0.000841645
-0.000341751
-0.000722837
-0.000232769
-0.000584136
-0.000142915
-0.000437057
-7.52678e-05
-0.000294377
-3.03635e-05
-0.000168468
-6.44475e-06
-7.01112e-05
-9.29559e-06
-7.20135e-06
7.97291e-05
-2.53995e-05
0.000205803
-5.16621e-05
0.000301005
-8.38577e-05
0.000373214
-0.000120484
0.000428712
-0.000160573
0.000472961
-0.000203566
0.000510253
-0.00024919
0.000543606
-0.000297336
0.000574842
-0.00034796
0.000604764
-0.000401007
0.000633378
-0.000456357
0.000660105
-0.000513786
0.000683955
-0.000572941
0.000703673
-0.000633327
0.000717851
-0.000694314
0.000725031
-0.000755148
0.000723798
-0.000814985
0.000712881
-0.000872941
0.000691258
-0.00092815
0.000658246
-0.000979834
0.000613572
-0.00102736
0.000557412
-0.00107029
0.000490373
-0.00110842
0.000413434
-0.00114174
0.000327837
-0.00117044
0.000234956
-0.00119482
0.000136163
-0.00121521
3.2729e-05
-0.00123193
-7.42058e-05
-0.00124508
-0.000183744
-0.0012544
-0.000295268
-0.00125927
-0.000408094
-0.00125854
-0.000521379
-0.00125052
-0.000633893
-0.00123296
-0.000743745
-0.00120318
-0.00084808
-0.00115834
-0.00094284
-0.0010959
-0.00102267
-0.00101423
-0.00108113
-0.000913298
-0.00111122
-0.000795224
-0.00110651
-0.000664632
-0.00106242
-0.000528436
-0.000977822
-0.000395065
-0.00085619
-0.000273179
-0.000706006
-0.000170173
-0.000540047
-9.09488e-05
-0.000373588
-3.73075e-05
-0.000222088
-8.12867e-06
-9.92785e-05
-1.74223e-05
-6.90954e-06
8.66456e-05
-2.44835e-05
0.000223416
-5.00356e-05
0.000326593
-8.15308e-05
0.000404744
-0.000117496
0.000464711
-0.00015695
0.000512448
-0.0001993
0.000552638
-0.000244233
0.000588574
-0.000291599
0.000622243
-0.000341314
0.000654516
-0.000393288
0.000685391
-0.000447361
0.000714219
-0.000503268
0.000739904
-0.000560613
0.000761061
-0.000618858
0.000776142
-0.000677332
0.000783552
-0.000735247
0.000781762
-0.000791745
0.000769429
-0.000845945
0.000745511
-0.000897019
0.000709375
-0.000944258
0.000660868
-0.000987141
0.000600353
-0.00102538
0.000528671
-0.00105893
0.000447052
-0.00108801
0.000356982
-0.00111302
0.000260031
-0.00113449
0.000157697
-0.00115298
5.12863e-05
-0.00116905
-5.80732e-05
-0.00118308
-0.000169648
-0.00119511
-0.000283182
-0.00120478
-0.000398367
-0.00121122
-0.000514885
-0.00121292
-0.000632147
-0.00120763
-0.000748983
-0.00119243
-0.000863244
-0.00116382
-0.000971408
-0.0011182
-0.00106826
-0.00105246
-0.00114684
-0.000964819
-0.00119883
-0.000855757
-0.00121554
-0.000728659
-0.00118949
-0.000590027
-0.00111643
-0.000448914
-0.000997284
-0.000315589
-0.000839313
-0.000199677
-0.000655941
-0.000108346
-0.0004649
-4.51851e-05
-0.000285234
-1.00811e-05
-0.000134364
-2.75013e-05
-6.47263e-06
9.31417e-05
-2.31131e-05
0.000240101
-4.75412e-05
0.000351066
-7.78693e-05
0.000435115
-0.000112674
0.000499557
-0.000150964
0.000550779
-0.00019211
0.000593825
-0.000235747
0.000632252
-0.000281672
0.000668211
-0.000329757
0.000702644
-0.000379864
0.000735543
-0.000431795
0.000766195
-0.000485243
0.0007934
-0.000539778
0.000815645
-0.000594829
0.000831244
-0.000649702
0.000838476
-0.0007036
0.000835713
-0.000755672
0.000821555
-0.000805074
0.000794969
-0.000851041
0.000755397
-0.000892958
0.000702843
-0.000930428
0.000637881
-0.00096331
0.000561612
-0.000991732
0.000475536
-0.00101607
0.000381384
-0.0010369
0.000280922
-0.00105491
0.000175775
-0.00107085
6.72855e-05
-0.00108541
-4.3446e-05
-0.00109924
-0.000155763
-0.00111261
-0.000269757
-0.00112548
-0.000385442
-0.00113734
-0.000502971
-0.00114705
-0.000622397
-0.00115264
-0.000743352
-0.00115124
-0.000864603
-0.00113909
-0.000983516
-0.00111181
-0.00109551
-0.00106494
-0.00119368
-0.000994893
-0.00126885
-0.000900066
-0.00131035
-0.000781975
-0.00130756
-0.000645947
-0.00125244
-0.000500996
-0.00114221
-0.000358639
-0.000981651
-0.000230771
-0.00078379
-0.000127235
-0.000568418
-5.39461e-05
-0.000358501
-1.23107e-05
-0.000175981
-3.98095e-05
-5.90987e-06
9.90668e-05
-2.13088e-05
0.000255557
-4.4211e-05
0.000374021
-7.29132e-05
0.000463868
-0.000106064
0.000532757
-0.000142668
0.000587432
-0.000182053
0.000633258
-0.000223795
0.000674043
-0.000267633
0.000712098
-0.000313382
0.000748442
-0.000360857
0.000783068
-0.00040982
0.000815208
-0.000459932
0.000843564
-0.000510739
0.000866503
-0.000561657
0.000882216
-0.000611993
0.000888866
-0.00066097
0.000884744
-0.000707779
0.000868419
-0.000751642
0.000838888
-0.000791888
0.000795699
-0.000828019
0.00073903
-0.000859771
0.00066969
-0.000887144
0.000589043
-0.000910405
0.000498855
-0.000930055
0.000401091
-0.00094677
0.000297695
-0.000961333
0.000190396
-0.000974563
8.05736e-05
-0.000987237
-3.07151e-05
-0.00100013
-0.000142818
-0.00101372
-0.00025612
-0.00102824
-0.000370867
-0.00104359
-0.000487583
-0.00105907
-0.000606878
-0.00107322
-0.000729163
-0.00108357
-0.000854211
-0.00108651
-0.000980541
-0.00107732
-0.00110467
-0.00105056
-0.0012204
-0.00100098
-0.00131841
-0.000924725
-0.00138658
-0.000820905
-0.00141136
-0.000692874
-0.00138045
-0.000548755
-0.00128631
-0.000400669
-0.00112972
-0.000262579
-0.000921862
-0.000147253
-0.000683726
-6.34952e-05
-0.000442238
-1.48065e-05
-0.000224651
-5.46134e-05
-5.22401e-06
0.00010432
-1.91089e-05
0.000269504
-4.01075e-05
0.00039508
-6.67462e-05
0.000490564
-9.77668e-05
0.000563833
-0.00013218
0.000621899
-0.000169269
0.0006704
-0.000208544
0.000713372
-0.000249679
0.000753286
-0.000292427
0.000791245
-0.000336558
0.000827253
-0.000381797
0.000860501
-0.000427785
0.000889607
-0.00047406
0.000912833
-0.000520051
0.000928262
-0.000565095
0.000933964
-0.000608467
0.000928171
-0.000649436
0.000909443
-0.000687327
0.000876833
-0.000721587
0.000830013
-0.000751852
0.00076935
-0.000777996
0.000695887
-0.000800143
0.000611243
-0.000818662
0.000517427
-0.000834126
0.000416606
-0.000847247
0.000310867
-0.000858815
0.000202016
-0.000869641
9.14501e-05
-0.000880488
-1.98175e-05
-0.00089216
-0.0001311
-0.000905253
-0.000242984
-0.000920222
-0.000355858
-0.000937288
-0.00047048
-0.000956256
-0.000587875
-0.000976274