/*--------------------------------*- C++ -*----------------------------------*\
  =========                 |
  \\      /  F ield         | OpenFOAM: The Open Source CFD Toolbox
   \\    /   O peration     | Website:  https://openfoam.org
    \\  /    A nd           | Version:  7
     \\/     M anipulation  |
\*---------------------------------------------------------------------------*/
FoamFile
{
    version     2.0;
    format      ascii;
    class       volVectorField;
    location    "50";
    object      U;
}
// * * * * * * * * * * * * * * * * * * * * * * * * * * * * * * * * * * * * * //

dimensions      [0 1 -1 0 0 0 0];

internalField   nonuniform List<vector> 
2500
(
(-0.000405085 -0.000541221 0)
(-0.000682373 -0.000257773 0)
(-7.40808e-05 -0.000102305 0)
(2.39381e-07 -2.27832e-05 0)
(-0.000223665 1.92456e-05 0)
(-0.000626542 4.98922e-05 0)
(-0.00116612 7.26017e-05 0)
(-0.00181359 8.9758e-05 0)
(-0.00254703 0.000103744 0)
(-0.00335165 0.000116276 0)
(-0.00421807 0.00012833 0)
(-0.00513991 0.000140338 0)
(-0.00611159 0.000152196 0)
(-0.00712644 0.000163465 0)
(-0.00817524 0.00017338 0)
(-0.00924511 0.000181041 0)
(-0.0103189 0.000185398 0)
(-0.011375 0.00018542 0)
(-0.0123872 0.000180062 0)
(-0.0133255 0.000168439 0)
(-0.0141567 0.000149803 0)
(-0.0148458 0.00012372 0)
(-0.0153573 9.00503e-05 0)
(-0.0156572 4.91024e-05 0)
(-0.0157149 1.59162e-06 0)
(-0.0155055 -5.11831e-05 0)
(-0.0150122 -0.000107328 0)
(-0.0142289 -0.000164346 0)
(-0.0131621 -0.000219365 0)
(-0.011832 -0.000269246 0)
(-0.0102728 -0.000310896 0)
(-0.00853199 -0.000341448 0)
(-0.00666832 -0.000358603 0)
(-0.0047493 -0.000360795 0)
(-0.00284731 -0.000347445 0)
(-0.00103547 -0.000318971 0)
(0.000616927 -0.000276834 0)
(0.00204865 -0.00022343 0)
(0.00321011 -0.000161918 0)
(0.00406584 -9.57976e-05 0)
(0.00459629 -2.86231e-05 0)
(0.00479859 3.62387e-05 0)
(0.00468632 9.56953e-05 0)
(0.00428907 0.000146878 0)
(0.00365251 0.000186681 0)
(0.00284011 0.000211065 0)
(0.00193736 0.000214252 0)
(0.00106109 0.000188068 0)
(0.000371117 0.000121178 0)
(1.89711e-05 1.85304e-05 0)
(-0.000103826 -0.00113301 0)
(-0.00075399 -0.00109715 0)
(-0.000665324 -0.000293959 0)
(-0.00106969 0.000214477 0)
(-0.00193814 0.000605516 0)
(-0.00320645 0.000914306 0)
(-0.004815 0.00115819 0)
(-0.00670615 0.00135214 0)
(-0.00883211 0.00151065 0)
(-0.0111568 0.00164533 0)
(-0.0136534 0.00176399 0)
(-0.0163 0.00187013 0)
(-0.0190755 0.00196347 0)
(-0.0219552 0.0020404 0)
(-0.0249081 0.00209488 0)
(-0.0278939 0.00211917 0)
(-0.030862 0.00210467 0)
(-0.0337515 0.00204265 0)
(-0.036491 0.00192497 0)
(-0.0390012 0.00174481 0)
(-0.0411963 0.00149736 0)
(-0.0429881 0.00118054 0)
(-0.0442892 0.000795541 0)
(-0.0450182 0.000347354 0)
(-0.0451043 -0.000154991 0)
(-0.044492 -0.000697921 0)
(-0.0431469 -0.00126287 0)
(-0.0410613 -0.00182707 0)
(-0.0382573 -0.00236487 0)
(-0.034789 -0.00284924 0)
(-0.030743 -0.0032537 0)
(-0.0262359 -0.00355424 0)
(-0.0214103 -0.00373135 0)
(-0.0164285 -0.00377175 0)
(-0.0114647 -0.00366981 0)
(-0.00669561 -0.00342821 0)
(-0.00229042 -0.00305802 0)
(0.00159798 -0.00257851 0)
(0.00484252 -0.00201523 0)
(0.00735027 -0.00139734 0)
(0.0090646 -0.000756748 0)
(0.00996911 -0.000125988 0)
(0.0100885 0.000462821 0)
(0.0094888 0.000978158 0)
(0.00827756 0.00138701 0)
(0.00660502 0.00165152 0)
(0.00466869 0.00172529 0)
(0.00272294 0.00155285 0)
(0.00109223 0.00108455 0)
(0.000121411 0.000369076 0)
(-8.78292e-06 -0.000632189 0)
(-0.000523193 -0.000645978 0)
(-0.00122436 0.000288415 0)
(-0.00247448 0.00123546 0)
(-0.00428085 0.00210193 0)
(-0.00661307 0.00284637 0)
(-0.00941353 0.00346652 0)
(-0.0126171 0.00398021 0)
(-0.0161651 0.00441134 0)
(-0.020009 0.00478128 0)
(-0.0241089 0.00510439 0)
(-0.0284287 0.00538631 0)
(-0.0329308 0.00562405 0)
(-0.0375714 0.0058072 0)
(-0.0422961 0.00591972 0)
(-0.0470377 0.00594189 0)
(-0.0517144 0.00585232 0)
(-0.05623 0.00562994 0)
(-0.0604757 0.00525583 0)
(-0.0643322 0.00471505 0)
(-0.067674 0.00399843 0)
(-0.0703743 0.00310407 0)
(-0.0723108 0.00203868 0)
(-0.0733718 0.00081841 0)
(-0.0734629 -0.000530766 0)
(-0.0725126 -0.00197223 0)
(-0.0704804 -0.00345789 0)
(-0.0673622 -0.00493071 0)
(-0.063195 -0.00632765 0)
(-0.0580583 -0.00758335 0)
(-0.0520745 -0.00863427 0)
(-0.0454057 -0.00942312 0)
(-0.0382488 -0.00990319 0)
(-0.0308273 -0.0100422 0)
(-0.0233822 -0.00982565 0)
(-0.0161596 -0.00925818 0)
(-0.00939885 -0.00836434 0)
(-0.00331952 -0.0071873 0)
(0.00188961 -0.00578697 0)
(0.00608134 -0.00423544 0)
(0.00916113 -0.00261098 0)
(0.0110889 -0.000995828 0)
(0.0118835 0.00052669 0)
(0.0116235 0.00187334 0)
(0.0104494 0.00295912 0)
(0.00856129 0.00369217 0)
(0.00622135 0.0039695 0)
(0.00375918 0.00367823 0)
(0.00159306 0.00271775 0)
(0.000191071 0.00106361 0)
(-1.11593e-05 -0.000308353 0)
(-0.000783089 0.000173483 0)
(-0.00218182 0.00161336 0)
(-0.00433881 0.003179 0)
(-0.00719301 0.00465888 0)
(-0.0106873 0.0059627 0)
(-0.0147502 0.00707324 0)
(-0.0193081 0.00801046 0)
(-0.0242949 0.00880703 0)
(-0.0296541 0.00949322 0)
(-0.0353362 0.0100887 0)
(-0.0412929 0.0105991 0)
(-0.0474716 0.0110161 0)
(-0.05381 0.0113191 0)
(-0.0602317 0.0114785 0)
(-0.0666443 0.0114591 0)
(-0.0729374 0.0112234 0)
(-0.0789845 0.0107355 0)
(-0.0846444 0.00996424 0)
(-0.0897655 0.00888642 0)
(-0.0941909 0.00748961 0)
(-0.0977644 0.00577482 0)
(-0.100338 0.0037584 0)
(-0.101777 0.00147312 0)
(-0.101972 -0.00103181 0)
(-0.100839 -0.0036895 0)
(-0.0983336 -0.00641405 0)
(-0.0944525 -0.00910561 0)
(-0.089241 -0.0116552 0)
(-0.0827941 -0.0139504 0)
(-0.0752558 -0.0158827 0)
(-0.0668172 -0.0173535 0)
(-0.0577108 -0.018282 0)
(-0.0482023 -0.0186109 0)
(-0.0385804 -0.0183121 0)
(-0.0291442 -0.0173896 0)
(-0.020189 -0.0158809 0)
(-0.0119916 -0.0138559 0)
(-0.00479549 -0.0114129 0)
(0.00120147 -0.00867415 0)
(0.00585858 -0.00577829 0)
(0.00910439 -0.00287146 0)
(0.0109392 -0.000103882 0)
(0.0114374 0.00237208 0)
(0.0107506 0.00440292 0)
(0.00910487 0.00582837 0)
(0.00679917 0.00647678 0)
(0.00421231 0.00616629 0)
(0.0018325 0.0047226 0)
(0.000223169 0.00196948 0)
(-5.61113e-05 0.000134942 0)
(-0.00120242 0.00151836 0)
(-0.00336142 0.00378512 0)
(-0.00650465 0.00615284 0)
(-0.0104959 0.00837132 0)
(-0.0152342 0.0103332 0)
(-0.0206256 0.0120197 0)
(-0.0265849 0.0134582 0)
(-0.0330396 0.0146915 0)
(-0.0399279 0.0157577 0)
(-0.0471934 0.0166798 0)
(-0.0547785 0.0174604 0)
(-0.0626179 0.0180825 0)
(-0.070633 0.0185119 0)
(-0.0787282 0.0187021 0)
(-0.0867883 0.0185995 0)
(-0.0946786 0.0181485 0)
(-0.102246 0.0172969 0)
(-0.109323 0.0160011 0)
(-0.115731 0.01423 0)
(-0.121287 0.0119698 0)
(-0.125812 0.00922688 0)
(-0.129134 0.00603072 0)
(-0.131103 0.00243472 0)
(-0.131591 -0.00148443 0)
(-0.130502 -0.00562551 0)
(-0.127782 -0.00985955 0)
(-0.123423 -0.0140389 0)
(-0.117467 -0.0180032 0)
(-0.110014 -0.0215877 0)
(-0.101216 -0.0246325 0)
(-0.0912798 -0.0269917 0)
(-0.0804599 -0.0285434 0)
(-0.0690526 -0.0291989 0)
(-0.0573847 -0.0289101 0)
(-0.0458008 -0.0276751 0)
(-0.0346478 -0.0255407 0)
(-0.0242579 -0.0226021 0)
(-0.0149318 -0.0189983 0)
(-0.0069217 -0.0149054 0)
(-0.000417723 -0.0105278 0)
(0.0044643 -0.00608797 0)
(0.00769388 -0.00181678 0)
(0.00932884 0.00205153 0)
(0.00951632 0.00528066 0)
(0.00849267 0.00762959 0)
(0.00657913 0.00884635 0)
(0.00418848 0.00866645 0)
(0.00186313 0.00682061 0)
(0.000229948 0.00294611 0)
(-0.000110833 0.000820346 0)
(-0.00170497 0.00348876 0)
(-0.00468058 0.00687203 0)
(-0.00887603 0.0102299 0)
(-0.0140723 0.0133125 0)
(-0.0201177 0.0160225 0)
(-0.0268913 0.0183567 0)
(-0.0342945 0.0203591 0)
(-0.0422488 0.0220864 0)
(-0.0506887 0.0235852 0)
(-0.0595535 0.0248795 0)
(-0.0687792 0.0259664 0)
(-0.0782908 0.0268165 0)
(-0.0879967 0.0273788 0)
(-0.097785 0.0275871 0)
(-0.107522 0.0273668 0)
(-0.117053 0.0266427 0)
(-0.126202 0.0253456 0)
(-0.134779 0.0234189 0)
(-0.142585 0.0208246 0)
(-0.149412 0.0175482 0)
(-0.155061 0.0136032 0)
(-0.159339 0.00903391 0)
(-0.162075 0.00391635 0)
(-0.163122 -0.00164321 0)
(-0.162365 -0.00750839 0)
(-0.159732 -0.0135042 0)
(-0.155198 -0.0194322 0)
(-0.148794 -0.0250772 0)
(-0.140606 -0.0302173 0)
(-0.130786 -0.0346352 0)
(-0.119543 -0.0381303 0)
(-0.107144 -0.0405315 0)
(-0.0939091 -0.0417097 0)
(-0.0801983 -0.0415877 0)
(-0.0664006 -0.0401497 0)
(-0.0529162 -0.0374453 0)
(-0.040138 -0.0335908 0)
(-0.0284312 -0.028765 0)
(-0.0181124 -0.023201 0)
(-0.00943168 -0.0171747 0)
(-0.00255697 -0.010992 0)
(0.00243746 -0.00497571 0)
(0.00557891 0.000542293 0)
(0.00699976 0.00522992 0)
(0.00693605 0.00875245 0)
(0.0057223 0.0107652 0)
(0.00379782 0.0109079 0)
(0.00174337 0.00880208 0)
(0.000220236 0.0038969 0)
(-0.00017028 0.00177899 0)
(-0.00225002 0.00613763 0)
(-0.00609019 0.0109266 0)
(-0.0113866 0.0154661 0)
(-0.0178354 0.0195383 0)
(-0.0252324 0.0230822 0)
(-0.0334272 0.0261287 0)
(-0.0423076 0.0287498 0)
(-0.0517895 0.0310216 0)
(-0.0618058 0.0330005 0)
(-0.0722943 0.0347108 0)
(-0.0831873 0.0361409 0)
(-0.0944034 0.0372463 0)
(-0.105842 0.0379559 0)
(-0.117378 0.0381811 0)
(-0.128864 0.0378246 0)
(-0.140129 0.0367899 0)
(-0.150979 0.0349898 0)
(-0.161207 0.0323542 0)
(-0.17059 0.0288378 0)
(-0.178905 0.0244252 0)
(-0.185926 0.0191366 0)
(-0.191438 0.0130308 0)
(-0.195247 0.0062064 0)
(-0.197179 -0.00120038 0)
(-0.19709 -0.00902067 0)
(-0.19488 -0.0170318 0)
(-0.190495 -0.0249831 0)
(-0.183939 -0.0326014 0)
(-0.175277 -0.0396026 0)
(-0.164643 -0.045705 0)
(-0.152239 -0.0506443 0)
(-0.138337 -0.0541893 0)
(-0.123274 -0.056158 0)
(-0.107441 -0.0564325 0)
(-0.0912729 -0.0549708 0)
(-0.0752298 -0.0518159 0)
(-0.0597739 -0.0470982 0)
(-0.0453465 -0.0410331 0)
(-0.0323428 -0.0339122 0)
(-0.021088 -0.0260889 0)
(-0.0118173 -0.017962 0)
(-0.00465958 -0.00995798 0)
(0.000371405 -0.002517 0)
(0.0033811 0.00391465 0)
(0.00459629 0.00889283 0)
(0.00435992 0.0119677 0)
(0.0031303 0.0126718 0)
(0.00151839 0.0105108 0)
(0.00020144 0.0047579 0)
(-0.000231674 0.00302726 0)
(-0.00282456 0.0095008 0)
(-0.00755667 0.0159866 0)
(-0.0139843 0.0218996 0)
(-0.0217141 0.0270853 0)
(-0.030488 0.0315459 0)
(-0.0401269 0.0353656 0)
(-0.0505053 0.0386571 0)
(-0.0615355 0.0415225 0)
(-0.0731506 0.0440301 0)
(-0.0852894 0.0462037 0)
(-0.097884 0.048021 0)
(-0.11085 0.0494194 0)
(-0.124081 0.0503053 0)
(-0.137445 0.0505652 0)
(-0.150783 0.0500769 0)
(-0.163911 0.0487211 0)
(-0.176624 0.046391 0)
(-0.188696 0.0430018 0)
(-0.199888 0.0384988 0)
(-0.209954 0.0328639 0)
(-0.218645 0.0261216 0)
(-0.225719 0.0183427 0)
(-0.230948 0.00964607 0)
(-0.234127 0.000196112 0)
(-0.235073 -0.00980917 0)
(-0.233647 -0.0201009 0)
(-0.229753 -0.0303748 0)
(-0.223355 -0.0402969 0)
(-0.214483 -0.0495154 0)
(-0.203243 -0.0576762 0)
(-0.189817 -0.06444 0)
(-0.174472 -0.0695019 0)
(-0.157556 -0.072612 0)
(-0.139488 -0.0735948 0)
(-0.120751 -0.0723667 0)
(-0.101869 -0.0689499 0)
(-0.083385 -0.0634786 0)
(-0.065832 -0.0561992 0)
(-0.0497009 -0.0474611 0)
(-0.0354117 -0.037701 0)
(-0.0232854 -0.027421 0)
(-0.013524 -0.0171658 0)
(-0.00619546 -0.00750146 0)
(-0.00122908 0.000999158 0)
(0.0015827 0.00776214 0)
(0.0025847 0.0122158 0)
(0.00225319 0.0137761 0)
(0.00122287 0.0118284 0)
(0.000177998 0.00548654 0)
(-0.000294564 0.0045759 0)
(-0.00341397 0.0135998 0)
(-0.0090521 0.0220741 0)
(-0.016623 0.0295499 0)
(-0.0256425 0.0359708 0)
(-0.0357996 0.0414287 0)
(-0.0468879 0.0460819 0)
(-0.0587705 0.0500962 0)
(-0.0713582 0.0536071 0)
(-0.0845868 0.0566973 0)
(-0.0983991 0.0593897 0)
(-0.11273 0.0616498 0)
(-0.127495 0.0633944 0)
(-0.142587 0.064505 0)
(-0.157869 0.0648408 0)
(-0.173176 0.0642529 0)
(-0.188317 0.0625967 0)
(-0.203073 0.0597436 0)
(-0.217205 0.0555914 0)
(-0.230457 0.0500726 0)
(-0.242559 0.0431628 0)
(-0.253235 0.0348863 0)
(-0.262211 0.0253216 0)
(-0.269222 0.0146031 0)
(-0.27402 0.00292021 0)
(-0.276378 -0.00950081 0)
(-0.276107 -0.0223532 0)
(-0.273058 -0.0352754 0)
(-0.267146 -0.0478705 0)
(-0.258352 -0.0597142 0)
(-0.24674 -0.0703709 0)
(-0.232463 -0.0794144 0)
(-0.215767 -0.0864506 0)
(-0.197002 -0.091143 0)
(-0.176607 -0.0932381 0)
(-0.155112 -0.0925901 0)
(-0.133107 -0.089181 0)
(-0.111227 -0.0831334 0)
(-0.0901096 -0.0747145 0)
(-0.0703639 -0.0643286 0)
(-0.0525277 -0.0524998 0)
(-0.0370331 -0.0398452 0)
(-0.0241772 -0.0270446 0)
(-0.0141025 -0.0148106 0)
(-0.00678726 -0.00386538 0)
(-0.00204831 0.0050708 0)
(0.000453565 0.0112849 0)
(0.00120835 0.0140615 0)
(0.000877199 0.0126626 0)
(0.000153818 0.00605486 0)
(-0.000356821 0.00643068 0)
(-0.00400775 0.0184431 0)
(-0.0105495 0.0291939 0)
(-0.0192567 0.038418 0)
(-0.0295544 0.0461923 0)
(-0.0410808 0.0527273 0)
(-0.0536047 0.058275 0)
(-0.0669806 0.0630681 0)
(-0.0811201 0.0672819 0)
(-0.0959643 0.0710168 0)
(-0.111463 0.074295 0)
(-0.127555 0.077068 0)
(-0.144163 0.0792304 0)
(-0.161178 0.0806361 0)
(-0.178465 0.0811148 0)
(-0.195856 0.0804884 0)
(-0.213152 0.0785845 0)
(-0.230126 0.0752493 0)
(-0.246526 0.0703588 0)
(-0.262075 0.0638285 0)
(-0.276482 0.0556218 0)
(-0.289439 0.0457574 0)
(-0.300637 0.0343154 0)
(-0.309767 0.0214406 0)
(-0.316536 0.00734277 0)
(-0.320666 -0.00772277 0)
(-0.321913 -0.0234246 0)
(-0.320069 -0.0393387 0)
(-0.314988 -0.0550048 0)
(-0.306596 -0.069922 0)
(-0.294902 -0.0835663 0)
(-0.28001 -0.0954126 0)
(-0.262136 -0.104962 0)
(-0.24161 -0.11177 0)
(-0.218881 -0.115482 0)
(-0.19451 -0.115863 0)
(-0.169155 -0.11283 0)
(-0.143542 -0.10647 0)
(-0.118432 -0.0970547 0)
(-0.0945712 -0.0850346 0)
(-0.072643 -0.0710227 0)
(-0.0532216 -0.0557625 0)
(-0.0367301 -0.0400886 0)
(-0.0234115 -0.0248857 0)
(-0.0133141 -0.011053 0)
(-0.00629186 0.000518045 0)
(-0.00201657 0.00894964 0)
(1.57463e-05 0.0133795 0)
(0.000494281 0.012936 0)
(0.000130272 0.00644363 0)
(-0.000418606 0.00859093 0)
(-0.00459381 0.0240251 0)
(-0.01202 0.0373331 0)
(-0.0218363 0.0484846 0)
(-0.0333794 0.0577271 0)
(-0.0462398 0.0654179 0)
(-0.0601649 0.0719234 0)
(-0.0750034 0.0775557 0)
(-0.0906699 0.0825374 0)
(-0.107113 0.086989 0)
(-0.124292 0.0909324 0)
(-0.142155 0.094304 0)
(-0.160628 0.0969742 0)
(-0.179611 0.0987671 0)
(-0.198967 0.0994806 0)
(-0.218529 0.0989043 0)
(-0.238094 0.0968343 0)
(-0.257425 0.0930874 0)
(-0.276257 0.0875129 0)
(-0.294295 0.0800033 0)
(-0.311219 0.0705038 0)
(-0.326693 0.059021 0)
(-0.340368 0.0456302 0)
(-0.351892 0.0304811 0)
(-0.360924 0.0137995 0)
(-0.367138 -0.00412758 0)
(-0.37023 -0.022962 0)
(-0.369937 -0.0422108 0)
(-0.366048 -0.0613524 0)
(-0.358424 -0.079809 0)
(-0.347008 -0.096964 0)
(-0.331841 -0.112185 0)
(-0.313084 -0.124854 0)
(-0.291026 -0.134399 0)
(-0.2661 -0.140337 0)
(-0.23888 -0.142313 0)
(-0.210072 -0.140143 0)
(-0.180494 -0.133848 0)
(-0.15103 -0.123676 0)
(-0.122585 -0.110107 0)
(-0.09602 -0.0938372 0)
(-0.0720867 -0.0757456 0)
(-0.0513738 -0.0568432 0)
(-0.0342617 -0.0382171 0)
(-0.0208983 -0.0209788 0)
(-0.0111953 -0.00622615 0)
(-0.00484296 0.00497185 0)
(-0.00132859 0.0115781 0)
(7.42362e-05 0.0125751 0)
(0.00010894 0.0066374 0)
(-0.000477019 0.0110502 0)
(-0.00515799 0.0303254 0)
(-0.0134319 0.0464594 0)
(-0.0243089 0.0597093 0)
(-0.0370418 0.0705303 0)
(-0.0511783 0.0794551 0)
(-0.0664474 0.0869841 0)
(-0.0826947 0.0935211 0)
(-0.0998402 0.0993427 0)
(-0.117843 0.104592 0)
(-0.136671 0.109292 0)
(-0.156283 0.113362 0)
(-0.176615 0.116646 0)
(-0.197571 0.118937 0)
(-0.21902 0.119997 0)
(-0.240792 0.119581 0)
(-0.262681 0.117448 0)
(-0.284443 0.113382 0)
(-0.305795 0.107199 0)
(-0.326424 0.098762 0)
(-0.345983 0.0879927 0)
(-0.364105 0.0748795 0)
(-0.380405 0.0594876 0)
(-0.394491 0.0419665 0)
(-0.405979 0.0225537 0)
(-0.4145 0.00156643 0)
(-0.419698 -0.020647 0)
(-0.421263 -0.0435453 0)
(-0.418921 -0.066541 0)
(-0.412464 -0.0889849 0)
(-0.401762 -0.11017 0)
(-0.386778 -0.129354 0)
(-0.36759 -0.14579 0)
(-0.344419 -0.158764 0)
(-0.317644 -0.167635 0)
(-0.287815 -0.171894 0)
(-0.25566 -0.171215 0)
(-0.222062 -0.165508 0)
(-0.188027 -0.154955 0)
(-0.15463 -0.140034 0)
(-0.122932 -0.121509 0)
(-0.0939092 -0.100395 0)
(-0.0683628 -0.0778998 0)
(-0.0468601 -0.0553487 0)
(-0.0296911 -0.0341094 0)
(-0.0168567 -0.0155327 0)
(-0.0080824 -0.000918338 0)
(-0.00284836 0.00848898 0)
(-0.000388375 0.0114988 0)
(8.89471e-05 0.00661953 0)
(-0.000532064 0.0137944 0)
(-0.00568685 0.0373072 0)
(-0.0147507 0.0565198 0)
(-0.0266169 0.0720289 0)
(-0.0404605 0.0845339 0)
(-0.0557908 0.0947699 0)
(-0.0723221 0.10339 0)
(-0.0898986 0.110901 0)
(-0.108447 0.117641 0)
(-0.127938 0.123777 0)
(-0.14835 0.129333 0)
(-0.169653 0.13421 0)
(-0.191792 0.138226 0)
(-0.214678 0.141136 0)
(-0.238181 0.142668 0)
(-0.262133 0.142533 0)
(-0.286321 0.140453 0)
(-0.310489 0.136169 0)
(-0.334341 0.129461 0)
(-0.357539 0.120158 0)
(-0.379715 0.108151 0)
(-0.400472 0.0934081 0)
(-0.419394 0.0759803 0)
(-0.43606 0.0560148 0)
(-0.450052 0.0337574 0)
(-0.460971 0.00954898 0)
(-0.468434 -0.0162291 0)
(-0.472085 -0.0430314 0)
(-0.471604 -0.0701937 0)
(-0.466721 -0.0970088 0)
(-0.457229 -0.12269 0)
(-0.442997 -0.146394 0)
(-0.424001 -0.167244 0)
(-0.400352 -0.184372 0)
(-0.372333 -0.196962 0)
(-0.340421 -0.204312 0)
(-0.305311 -0.205906 0)
(-0.267913 -0.201485 0)
(-0.229329 -0.191107 0)
(-0.190793 -0.175196 0)
(-0.153594 -0.154548 0)
(-0.118966 -0.130303 0)
(-0.0879832 -0.103878 0)
(-0.0614631 -0.0768744 0)
(-0.0398966 -0.0509692 0)
(-0.0234195 -0.0278263 0)
(-0.0118226 -0.00903423 0)
(-0.00458928 0.00391291 0)
(-0.000910822 0.00960913 0)
(7.00473e-05 0.00636802 0)
(-0.000579969 0.0168019 0)
(-0.00616253 0.044916 0)
(-0.0159396 0.0674392 0)
(-0.0287 0.0853565 0)
(-0.0435502 0.0996453 0)
(-0.0599668 0.111268 0)
(-0.0776517 0.121047 0)
(-0.0964495 0.129605 0)
(-0.116295 0.137343 0)
(-0.137167 0.144458 0)
(-0.159057 0.150972 0)
(-0.181945 0.15677 0)
(-0.205784 0.161637 0)
(-0.230489 0.165293 0)
(-0.255934 0.16742 0)
(-0.281944 0.167689 0)
(-0.308301 0.165772 0)
(-0.334733 0.161369 0)
(-0.360927 0.154215 0)
(-0.386525 0.1441 0)
(-0.411134 0.130886 0)
(-0.434335 0.114517 0)
(-0.455693 0.0950318 0)
(-0.47477 0.0725763 0)
(-0.491133 0.0474049 0)
(-0.504372 0.0198794 0)
(-0.514102 -0.00957298 0)
(-0.519939 -0.0404369 0)
(-0.521545 -0.0719676 0)
(-0.518602 -0.103422 0)
(-0.51083 -0.133955 0)
(-0.498 -0.16264 0)
(-0.479965 -0.188489 0)
(-0.456693 -0.210479 0)
(-0.428316 -0.227607 0)
(-0.395175 -0.23895 0)
(-0.357863 -0.243749 0)
(-0.317249 -0.241509 0)
(-0.274475 -0.232087 0)
(-0.230907 -0.215774 0)
(-0.188057 -0.193335 0)
(-0.147452 -0.165999 0)
(-0.1105 -0.135391 0)
(-0.0783427 -0.103421 0)
(-0.0517507 -0.0721378 0)
(-0.0310627 -0.0435933 0)
(-0.0161814 -0.0197423 0)
(-0.00661397 -0.00239407 0)
(-0.00151429 0.00678064 0)
(4.94863e-05 0.00585121 0)
(-0.000620779 0.020042 0)
(-0.00657075 0.0530788 0)
(-0.0169607 0.0791197 0)
(-0.0304959 0.0995808 0)
(-0.0462238 0.115746 0)
(-0.063593 0.128828 0)
(-0.0822953 0.139834 0)
(-0.102176 0.149509 0)
(-0.123176 0.158325 0)
(-0.145283 0.166509 0)
(-0.1685 0.174082 0)
(-0.192813 0.180909 0)
(-0.218181 0.186741 0)
(-0.244522 0.191257 0)
(-0.271706 0.194093 0)
(-0.299553 0.19487 0)
(-0.32783 0.193211 0)
(-0.356251 0.188763 0)
(-0.384481 0.181218 0)
(-0.41214 0.170327 0)
(-0.438817 0.15592 0)
(-0.464078 0.137922 0)
(-0.487483 0.116367 0)
(-0.508593 0.0914031 0)
(-0.526986 0.0632981 0)
(-0.542265 0.0324347 0)
(-0.554064 -0.000713895 0)
(-0.562018 -0.035657 0)
(-0.565794 -0.0716083 0)
(-0.565052 -0.107803 0)
(-0.559458 -0.143371 0)
(-0.548695 -0.177335 0)
(-0.532479 -0.208625 0)
(-0.51061 -0.23609 0)
(-0.483017 -0.258543 0)
(-0.449836 -0.274821 0)
(-0.411472 -0.283879 0)
(-0.36866 -0.284912 0)
(-0.322491 -0.277479 0)
(-0.2744 -0.261636 0)
(-0.226087 -0.238016 0)
(-0.179385 -0.207864 0)
(-0.136084 -0.172985 0)
(-0.0977366 -0.135613 0)
(-0.0654915 -0.0982337 0)
(-0.0399815 -0.0633789 0)
(-0.021292 -0.0334705 0)
(-0.00899924 -0.0107253 0)
(-0.00222982 0.00285348 0)
(2.55454e-05 0.00502462 0)
(-0.000650264 0.0234758 0)
(-0.00689228 0.0617036 0)
(-0.0177763 0.0914406 0)
(-0.0319436 0.114566 0)
(-0.0483951 0.132693 0)
(-0.0665572 0.147303 0)
(-0.0861128 0.159599 0)
(-0.106907 0.170457 0)
(-0.128884 0.180424 0)
(-0.152039 0.189758 0)
(-0.176381 0.198479 0)
(-0.201901 0.206428 0)
(-0.22856 0.213322 0)
(-0.256272 0.218793 0)
(-0.284903 0.222426 0)
(-0.314258 0.223786 0)
(-0.344089 0.222442 0)
(-0.374088 0.217989 0)
(-0.403897 0.210071 0)
(-0.433117 0.198401 0)
(-0.461321 0.182786 0)
(-0.48807 0.16314 0)
(-0.512932 0.139501 0)
(-0.535491 0.112032 0)
(-0.555358 0.0810239 0)
(-0.572181 0.046883 0)
(-0.585641 0.010116 0)
(-0.595441 -0.0287658 0)
(-0.601275 -0.0690121 0)
(-0.602827 -0.109839 0)
(-0.59974 -0.150396 0)
(-0.591627 -0.189704 0)
(-0.57808 -0.226658 0)
(-0.558715 -0.260024 0)
(-0.533227 -0.288459 0)
(-0.501476 -0.310568 0)
(-0.463587 -0.324993 0)
(-0.420047 -0.33055 0)
(-0.371778 -0.326399 0)
(-0.320171 -0.312221 0)
(-0.267038 -0.288384 0)
(-0.214488 -0.256025 0)
(-0.164722 -0.217051 0)
(-0.119785 -0.174012 0)
(-0.0813162 -0.12988 0)
(-0.0503635 -0.0877729 0)
(-0.0272961 -0.050706 0)
(-0.0118261 -0.0214281 0)
(-0.0030896 -0.00237444 0)
(-5.70473e-06 0.00382805 0)
(-0.000668898 0.0270555 0)
(-0.00711443 0.0706806 0)
(-0.0183511 0.104259 0)
(-0.0329849 0.130151 0)
(-0.0499826 0.150318 0)
(-0.0687531 0.166517 0)
(-0.0889706 0.18016 0)
(-0.110477 0.192259 0)
(-0.133218 0.203439 0)
(-0.157193 0.213988 0)
(-0.182409 0.223927 0)
(-0.208861 0.23307 0)
(-0.236506 0.241094 0)
(-0.26525 0.247581 0)
(-0.294946 0.252059 0)
(-0.325383 0.254035 0)
(-0.35629 0.253017 0)
(-0.387335 0.248546 0)
(-0.418136 0.240221 0)
(-0.448276 0.227724 0)
(-0.477317 0.210845 0)
(-0.504827 0.189503 0)
(-0.530394 0.163756 0)
(-0.553645 0.133799 0)
(-0.574252 0.0999594 0)
(-0.591935 0.0626779 0)
(-0.606457 0.0224872 0)
(-0.617617 -0.0200563 0)
(-0.62518 -0.0642796 0)
(-0.628902 -0.109402 0)
(-0.628442 -0.154638 0)
(-0.623382 -0.199066 0)
(-0.613219 -0.241612 0)
(-0.597399 -0.281022 0)
(-0.575367 -0.315862 0)
(-0.546667 -0.34454 0)
(-0.511059 -0.365387 0)
(-0.46866 -0.376797 0)
(-0.42008 -0.377427 0)
(-0.366511 -0.366443 0)
(-0.309745 -0.343758 0)
(-0.252083 -0.310227 0)
(-0.196122 -0.267719 0)
(-0.144456 -0.219033 0)
(-0.0993323 -0.167651 0)
(-0.0623572 -0.117379 0)
(-0.0343211 -0.0719827 0)
(-0.0151763 -0.0349028 0)
(-0.00413006 -0.00914495 0)
(-4.67911e-05 0.00218444 0)
(-0.000672615 0.0307254 0)
(-0.0072203 0.0798831 0)
(-0.0186536 0.117411 0)
(-0.0335685 0.146155 0)
(-0.0509134 0.168427 0)
(-0.0700848 0.186271 0)
(-0.0907475 0.201308 0)
(-0.112737 0.214693 0)
(-0.135997 0.227129 0)
(-0.160522 0.238939 0)
(-0.186319 0.250138 0)
(-0.213375 0.260514 0)
(-0.24164 0.269699 0)
(-0.271008 0.277221 0)
(-0.301314 0.282545 0)
(-0.332325 0.285115 0)
(-0.363743 0.284378 0)
(-0.395211 0.27982 0)
(-0.426322 0.270997 0)
(-0.456645 0.257569 0)
(-0.485739 0.239326 0)
(-0.513184 0.216208 0)
(-0.538606 0.188312 0)
(-0.561691 0.155888 0)
(-0.582192 0.11932 0)
(-0.599929 0.0790964 0)
(-0.614774 0.0357808 0)
(-0.626642 -0.0100325 0)
(-0.635412 -0.0577372 0)
(-0.640954 -0.106599 0)
(-0.642987 -0.155943 0)
(-0.641112 -0.204961 0)
(-0.634784 -0.252683 0)
(-0.623319 -0.297926 0)
(-0.605939 -0.33925 0)
(-0.581862 -0.374944 0)
(-0.550431 -0.403074 0)
(-0.511291 -0.421608 0)
(-0.464585 -0.42863 0)
(-0.411124 -0.42264 0)
(-0.352492 -0.402894 0)
(-0.291026 -0.369722 0)
(-0.229637 -0.324738 0)
(-0.171479 -0.270841 0)
(-0.119505 -0.211991 0)
(-0.0760394 -0.152768 0)
(-0.0424667 -0.0978565 0)
(-0.0191211 -0.0515933 0)
(-0.00538207 -0.0177365 0)
(-0.0001021 -7.54956e-07 0)
(-0.000662738 0.0344233 0)
(-0.00720212 0.0891704 0)
(-0.0186585 0.130717 0)
(-0.0336519 0.162376 0)
(-0.051127 0.186808 0)
(-0.0704722 0.20634 0)
(-0.0913419 0.222807 0)
(-0.113562 0.237506 0)
(-0.137065 0.251222 0)
(-0.161839 0.264309 0)
(-0.187883 0.276778 0)
(-0.215174 0.288389 0)
(-0.243647 0.298723 0)
(-0.27318 0.307249 0)
(-0.303585 0.313369 0)
(-0.334605 0.316456 0)
(-0.365914 0.315896 0)
(-0.39713 0.311122 0)
(-0.427826 0.301655 0)
(-0.457559 0.287145 0)
(-0.485893 0.267396 0)
(-0.512434 0.24239 0)
(-0.536853 0.212288 0)
(-0.558909 0.177419 0)
(-0.578452 0.138246 0)
(-0.595417 0.0953217 0)
(-0.609797 0.0492502 0)
(-0.621639 0.00064679 0)
(-0.63098 -0.0499093 0)
(-0.637803 -0.101788 0)
(-0.641944 -0.154448 0)
(-0.643072 -0.207246 0)
(-0.640665 -0.259392 0)
(-0.633984 -0.309867 0)
(-0.622092 -0.357333 0)
(-0.603922 -0.400079 0)
(-0.578399 -0.436004 0)
(-0.544639 -0.462703 0)
(-0.502187 -0.477671 0)
(-0.45128 -0.478626 0)
(-0.393065 -0.463955 0)
(-0.329692 -0.433183 0)
(-0.264218 -0.387359 0)
(-0.200285 -0.329238 0)
(-0.141608 -0.263127 0)
(-0.0913809 -0.194413 0)
(-0.051781 -0.128868 0)
(-0.0237152 -0.0719675 0)
(-0.00687615 -0.0284609 0)
(-0.000174221 -0.00283795 0)
(-0.000636049 0.0380815 0)
(-0.00704933 0.0983908 0)
(-0.018348 0.143981 0)
(-0.033205 0.178597 0)
(-0.0505791 0.205231 0)
(-0.0698558 0.226484 0)
(-0.090677 0.244402 0)
(-0.112854 0.260422 0)
(-0.136304 0.275414 0)
(-0.161002 0.289765 0)
(-0.186932 0.303479 0)
(-0.214057 0.316282 0)
(-0.242293 0.327708 0)
(-0.2715 0.337161 0)
(-0.301465 0.343972 0)
(-0.331905 0.347447 0)
(-0.362472 0.346908 0)
(-0.392758 0.341741 0)
(-0.422325 0.331443 0)
(-0.450726 0.315663 0)
(-0.477541 0.294239 0)
(-0.502409 0.267218 0)
(-0.525059 0.234849 0)
(-0.545329 0.197561 0)
(-0.563173 0.155918 0)
(-0.57864 0.110556 0)
(-0.591854 0.0621299 0)
(-0.602986 0.0112672 0)
(-0.612227 -0.041453 0)
(-0.619692 -0.0955317 0)
(-0.625361 -0.150579 0)
(-0.629014 -0.206151 0)
(-0.630221 -0.261694 0)
(-0.628275 -0.316436 0)
(-0.62218 -0.369267 0)
(-0.610682 -0.41861 0)
(-0.592357 -0.462352 0)
(-0.565797 -0.497841 0)
(-0.529878 -0.522037 0)
(-0.484103 -0.531838 0)
(-0.428938 -0.524583 0)
(-0.366064 -0.498689 0)
(-0.298425 -0.45427 0)
(-0.229986 -0.393562 0)
(-0.165192 -0.320969 0)
(-0.108219 -0.242614 0)
(-0.0622472 -0.165493 0)
(-0.0289856 -0.0964925 0)
(-0.00863389 -0.041649 0)
(-0.000267215 -0.00645065 0)
(-0.000595028 0.0416301 0)
(-0.00676222 0.107386 0)
(-0.0177141 0.156999 0)
(-0.032212 0.19459 0)
(-0.0492451 0.223453 0)
(-0.0682008 0.246447 0)
(-0.088707 0.265819 0)
(-0.110555 0.283149 0)
(-0.133642 0.299387 0)
(-0.157924 0.314953 0)
(-0.183364 0.329847 0)
(-0.209906 0.343762 0)
(-0.237449 0.356177 0)
(-0.265829 0.36643 0)
(-0.294813 0.373785 0)
(-0.324097 0.377475 0)
(-0.35331 0.376765 0)
(-0.382034 0.370998 0)
(-0.409825 0.359657 0)
(-0.436246 0.342408 0)
(-0.460903 0.319141 0)
(-0.48348 0.289987 0)
(-0.503773 0.255304 0)
(-0.5217 0.215642 0)
(-0.537312 0.171679 0)
(-0.550768 0.124151 0)
(-0.562305 0.073772 0)
(-0.572203 0.0211845 0)
(-0.580771 -0.0330395 0)
(-0.588261 -0.0884987 0)
(-0.594795 -0.144981 0)
(-0.600292 -0.202245 0)
(-0.604464 -0.26 0)
(-0.606726 -0.317786 0)
(-0.606146 -0.374819 0)
(-0.601417 -0.429814 0)
(-0.5909 -0.480825 0)
(-0.57276 -0.525146 0)
(-0.545222 -0.559363 0)
(-0.506961 -0.579605 0)
(-0.457553 -0.582076 0)
(-0.397908 -0.563817 0)
(-0.33052 -0.523585 0)
(-0.259398 -0.462623 0)
(-0.189573 -0.385016 0)
(-0.126239 -0.297413 0)
(-0.0737659 -0.208086 0)
(-0.0349257 -0.125599 0)
(-0.0106694 -0.0576374 0)
(-0.000383722 -0.0109723 0)
(-0.000537869 0.0449979 0)
(-0.0063398 0.115997 0)
(-0.0167591 0.169562 0)
(-0.0306738 0.210121 0)
(-0.0471227 0.241224 0)
(-0.0655007 0.265965 0)
(-0.0854206 0.28678 0)
(-0.106649 0.305383 0)
(-0.129059 0.322809 0)
(-0.152578 0.33951 0)
(-0.17715 0.355483 0)
(-0.202696 0.370388 0)
(-0.229095 0.383649 0)
(-0.256164 0.394542 0)
(-0.283652 0.402257 0)
(-0.31124 0.405964 0)
(-0.33855 0.404871 0)
(-0.365161 0.398292 0)
(-0.39064 0.385703 0)
(-0.414573 0.366805 0)
(-0.436607 0.341556 0)
(-0.456482 0.310189 0)
(-0.47406 0.273187 0)
(-0.489342 0.231231 0)
(-0.502461 0.185126 0)
(-0.513664 0.135707 0)
(-0.523275 0.0837536 0)
(-0.531653 0.0299271 0)
(-0.539181 -0.0252166 0)
(-0.546214 -0.0813295 0)
(-0.552998 -0.138385 0)
(-0.559591 -0.196318 0)
(-0.565875 -0.255099 0)
(-0.571455 -0.314599 0)
(-0.575571 -0.374427 0)
(-0.577023 -0.433718 0)
(-0.574137 -0.490888 0)
(-0.564825 -0.543422 0)
(-0.546787 -0.587773 0)
(-0.517883 -0.61949 0)
(-0.476676 -0.633676 0)
(-0.42303 -0.625823 0)
(-0.35862 -0.592934 0)
(-0.287114 -0.534696 0)
(-0.213852 -0.454303 0)
(-0.144968 -0.358525 0)
(-0.0861479 -0.256817 0)
(-0.0414888 -0.159647 0)
(-0.0129844 -0.0767483 0)
(-0.000527279 -0.0165408 0)
(-0.000468259 0.0481169 0)
(-0.00579227 0.124067 0)
(-0.0154967 0.181467 0)
(-0.0286088 0.224957 0)
(-0.0442336 0.258295 0)
(-0.0617795 0.284774 0)
(-0.0808442 0.307001 0)
(-0.101167 0.326822 0)
(-0.122588 0.34535 0)
(-0.145008 0.363076 0)
(-0.168344 0.379994 0)
(-0.192496 0.395733 0)
(-0.217323 0.409669 0)
(-0.24263 0.421011 0)
(-0.268156 0.428885 0)
(-0.293577 0.432401 0)
(-0.318519 0.43072 0)
(-0.342578 0.423134 0)
(-0.365345 0.409129 0)
(-0.386449 0.388452 0)
(-0.405588 0.361145 0)
(-0.422566 0.327553 0)
(-0.437318 0.288292 0)
(-0.449913 0.244181 0)
(-0.460552 0.196145 0)
(-0.469541 0.145115 0)
(-0.477253 0.0919329 0)
(-0.484087 0.0372781 0)
(-0.490453 -0.0183142 0)
(-0.496758 -0.0745128 0)
(-0.503337 -0.131455 0)
(-0.510358 -0.189216 0)
(-0.517874 -0.247982 0)
(-0.525708 -0.307934 0)
(-0.533353 -0.369092 0)
(-0.539849 -0.431088 0)
(-0.543683 -0.492864 0)
(-0.542743 -0.55235 0)
(-0.534417 -0.606182 0)
(-0.515901 -0.649634 0)
(-0.484741 -0.676909 0)
(-0.439579 -0.68193 0)
(-0.380914 -0.659641 0)
(-0.311631 -0.607597 0)
(-0.236979 -0.527386 0)
(-0.163798 -0.425283 0)
(-0.0991148 -0.311619 0)
(-0.0485848 -0.198882 0)
(-0.0155673 -0.0992701 0)
(-0.000700082 -0.0232935 0)
(-0.000386062 0.0509238 0)
(-0.00512969 0.131449 0)
(-0.0139523 0.192514 0)
(-0.0260539 0.238871 0)
(-0.0406243 0.274421 0)
(-0.0570928 0.302614 0)
(-0.0750427 0.326209 0)
(-0.0941829 0.34717 0)
(-0.11432 0.366692 0)
(-0.135321 0.385305 0)
(-0.157076 0.403006 0)
(-0.179466 0.4194 0)
(-0.202334 0.433813 0)
(-0.225478 0.445402 0)
(-0.248638 0.453232 0)
(-0.2715 0.45636 0)
(-0.293711 0.453912 0)
(-0.314897 0.44517 0)
(-0.334697 0.429642 0)
(-0.352793 0.407132 0)
(-0.368949 0.377775 0)
(-0.38304 0.342036 0)
(-0.395066 0.300662 0)
(-0.405156 0.254599 0)
(-0.413556 0.204887 0)
(-0.420597 0.152537 0)
(-0.426661 0.0984368 0)
(-0.432151 0.0432825 0)
(-0.437462 -0.0124133 0)
(-0.442993 -0.0683115 0)
(-0.449126 -0.124672 0)
(-0.4561 -0.181665 0)
(-0.464108 -0.239628 0)
(-0.473178 -0.298992 0)
(-0.483084 -0.360148 0)
(-0.493197 -0.423237 0)
(-0.502322 -0.487831 0)